/*--------------------------------*- C++ -*----------------------------------*\
  =========                 |
  \\      /  F ield         | OpenFOAM: The Open Source CFD Toolbox
   \\    /   O peration     | Website:  https://openfoam.org
    \\  /    A nd           | Version:  11
     \\/     M anipulation  |
\*---------------------------------------------------------------------------*/
FoamFile
{
    format      ascii;
    class       surfaceScalarField;
    location    "804";
    object      phi;
}
// * * * * * * * * * * * * * * * * * * * * * * * * * * * * * * * * * * * * * //

dimensions      [0 3 -1 0 0 0 0];

internalField   nonuniform List<scalar> 
263065
(
1.10085e-05
-6.57002e-06
0.000112494
-0.000115835
-1.09772e-06
2.32107e-05
4.71955e-05
0.00018671
-0.00018545
-6.0658e-05
2.6945e-05
0.000100944
0.000165606
-0.000158702
-0.000111582
2.27738e-05
0.00011644
0.000120934
-0.000111578
-0.000121626
1.59161e-05
9.95619e-05
9.77379e-05
-8.88244e-05
-0.000101618
1.00235e-05
7.5778e-05
0.000101289
-9.31691e-05
-7.80053e-05
5.66496e-06
6.6491e-05
0.000107994
-9.96905e-05
-7.04359e-05
2.58779e-06
7.42796e-05
9.98907e-05
-9.12713e-05
-7.98219e-05
8.08315e-07
8.81247e-05
8.3159e-05
-7.47865e-05
-9.47177e-05
6.81601e-12
9.76766e-05
7.14723e-05
-6.34735e-05
-0.000104867
-8.08291e-07
9.76767e-05
7.14723e-05
-6.34735e-05
-0.000104867
-2.58774e-06
8.81247e-05
8.3159e-05
-7.47865e-05
-9.47177e-05
-5.66491e-06
7.42796e-05
9.98907e-05
-9.12712e-05
-7.98219e-05
-1.00234e-05
6.64911e-05
0.000107994
-9.96904e-05
-7.04359e-05
-1.59161e-05
7.5778e-05
0.000101289
-9.3169e-05
-7.80054e-05
-2.27738e-05
9.9562e-05
9.77378e-05
-8.88243e-05
-0.000101618
-2.6945e-05
0.00011644
0.000120934
-0.000111577
-0.000121626
-2.32107e-05
0.000100944
0.000165606
-0.000158702
-0.000111582
-1.10085e-05
4.71955e-05
0.00018671
-0.00018545
-6.0658e-05
-6.57002e-06
0.000112494
-0.000115834
-1.09773e-06
1.05202e-05
-1.29051e-05
0.000120539
-0.000124724
2.18352e-05
3.69167e-05
0.000206106
-0.000207143
2.53937e-05
9.3594e-05
0.000190077
-0.000186286
2.18882e-05
0.000113463
0.000145047
-0.000138564
1.59115e-05
9.91745e-05
0.000119037
-0.000112673
1.05334e-05
7.55905e-05
0.000120448
-0.000114882
6.19336e-06
6.52255e-05
0.000126901
-0.000121295
2.91135e-06
7.17161e-05
0.000119437
-0.000113592
9.41045e-07
8.44433e-05
0.000102856
-9.72042e-05
2.38109e-12
9.3303e-05
9.09583e-05
-8.56436e-05
-9.4103e-07
9.3303e-05
9.09583e-05
-8.56436e-05
-2.91132e-06
8.44433e-05
0.000102856
-9.72042e-05
-6.19332e-06
7.17161e-05
0.000119437
-0.000113591
-1.05333e-05
6.52256e-05
0.000126901
-0.000121295
-1.59115e-05
7.55906e-05
0.000120448
-0.000114882
-2.18883e-05
9.91745e-05
0.000119037
-0.000112673
-2.53937e-05
0.000113463
0.000145047
-0.000138564
-2.18352e-05
9.3594e-05
0.000190077
-0.000186286
-1.05202e-05
3.69167e-05
0.000206106
-0.000207143
-1.29052e-05
0.000120539
-0.000124724
1.0057e-05
-1.8987e-05
0.000129358
-0.000133333
2.00593e-05
2.75499e-05
0.000224227
-0.000224863
2.31361e-05
8.67212e-05
0.000212535
-0.000208739
2.03584e-05
0.000110094
0.000167954
-0.000161807
1.55298e-05
9.80464e-05
0.000140167
-0.000134211
1.08587e-05
7.50714e-05
0.000139805
-0.000134614
6.59067e-06
6.42618e-05
0.000145854
-0.000140622
3.107e-06
6.97541e-05
0.000139013
-0.000133567
9.92533e-07
8.13887e-05
0.000122994
-0.000117825
-2.18789e-12
8.95185e-05
0.00011122
-0.000106443
-9.92528e-07
8.95184e-05
0.00011122
-0.000106443
-3.10698e-06
8.13886e-05
0.000122994
-0.000117825
-6.59064e-06
6.97541e-05
0.000139013
-0.000133567
-1.08587e-05
6.42619e-05
0.000145853
-0.000140622
-1.55298e-05
7.50714e-05
0.000139805
-0.000134614
-2.03584e-05
9.80464e-05
0.000140167
-0.000134211
-2.31361e-05
0.000110094
0.000167954
-0.000161807
-2.00593e-05
8.67212e-05
0.000212535
-0.000208739
-1.0057e-05
2.75499e-05
0.000224227
-0.000224863
-1.8987e-05
0.000129358
-0.000133333
9.28947e-06
-2.46278e-05
0.000139183
-0.000142831
1.76099e-05
1.92423e-05
0.00024157
-0.000241582
2.00547e-05
8.02085e-05
0.000233143
-0.000229075
1.80516e-05
0.000105989
0.000189588
-0.00018348
1.45586e-05
9.57958e-05
0.000161352
-0.000155609
1.0786e-05
7.3918e-05
0.000160076
-0.00015515
6.7259e-06
6.33493e-05
0.000165743
-0.000160771
3.14583e-06
6.81369e-05
0.000159358
-0.000154161
9.67635e-07
7.8651e-05
0.000143959
-0.000139043
-6.68876e-12
8.59811e-05
0.000132466
-0.000127961
-9.67639e-07
8.59811e-05
0.000132466
-0.000127961
-3.14582e-06
7.86509e-05
0.000143959
-0.000139043
-6.72588e-06
6.81368e-05
0.000159358
-0.000154161
-1.0786e-05
6.33493e-05
0.000165743
-0.000160771
-1.45586e-05
7.39181e-05
0.000160076
-0.00015515
-1.80516e-05
9.57959e-05
0.000161352
-0.000155609
-2.00548e-05
0.000105989
0.000189588
-0.00018348
-1.76099e-05
8.02085e-05
0.000233143
-0.000229075
-9.28947e-06
1.92423e-05
0.00024157
-0.000241582
-2.46278e-05
0.000139183
-0.000142831
8.01182e-06
-2.94849e-05
0.000150367
-0.000153522
1.41195e-05
1.22429e-05
0.000257839
-0.000256947
1.58677e-05
7.39433e-05
0.000251452
-0.000246935
1.48409e-05
0.000100882
0.000209859
-0.000203725
1.29117e-05
9.21541e-05
0.000182787
-0.000177216
1.01695e-05
7.19095e-05
0.000181557
-0.000176806
6.41741e-06
6.22829e-05
0.000186882
-0.000182063
2.87912e-06
6.66559e-05
0.000180837
-0.000175818
7.95492e-07
7.60385e-05
0.00016624
-0.000161543
-1.13215e-11
8.25181e-05
0.000155264
-0.000151006
-7.95506e-07
8.25181e-05
0.000155264
-0.000151006
-2.87912e-06
7.60384e-05
0.00016624
-0.000161543
-6.4174e-06
6.66558e-05
0.000180837
-0.000175817
-1.01695e-05
6.22829e-05
0.000186882
-0.000182063
-1.29117e-05
7.19096e-05
0.000181557
-0.000176806
-1.48409e-05
9.21542e-05
0.000182787
-0.000177216
-1.58677e-05
0.000100882
0.000209859
-0.000203725
-1.41195e-05
7.39433e-05
0.000251452
-0.000246935
-8.01182e-06
1.22429e-05
0.000257839
-0.000256947
-2.94849e-05
0.000150367
-0.000153522
5.91947e-06
-3.29086e-05
0.000163303
-0.000165799
9.27418e-06
6.9341e-06
0.0002731
-0.000271146
1.04442e-05
6.7808e-05
0.000267201
-0.000262236
1.06878e-05
9.45075e-05
0.000228675
-0.000222544
1.05133e-05
8.69284e-05
0.000204623
-0.000199223
8.84976e-06
6.8941e-05
0.000204477
-0.000199845
5.4902e-06
6.09108e-05
0.000209497
-0.000204765
2.18197e-06
6.50835e-05
0.00020369
-0.000198809
4.14307e-07
7.33014e-05
0.000190128
-0.000185624
-1.63361e-11
7.88855e-05
0.000179962
-0.000175915
-4.14332e-07
7.88855e-05
0.000179962
-0.000175915
-2.18198e-06
7.33013e-05
0.000190128
-0.000185624
-5.4902e-06
6.50835e-05
0.00020369
-0.000198809
-8.84977e-06
6.09108e-05
0.000209497
-0.000204765
-1.05133e-05
6.89411e-05
0.000204477
-0.000199845
-1.06878e-05
8.69284e-05
0.000204623
-0.000199223
-1.04442e-05
9.45076e-05
0.000228675
-0.000222544
-9.27419e-06
6.7808e-05
0.000267201
-0.000262236
-5.91948e-06
6.93409e-06
0.0002731
-0.000271146
-3.29086e-05
0.000163303
-0.000165799
2.76635e-06
-3.40195e-05
0.000178172
-0.000179827
2.91668e-06
3.65227e-06
0.000287786
-0.000284655
3.8541e-06
6.15418e-05
0.000280858
-0.000275529
5.68652e-06
8.66559e-05
0.000246653
-0.000240634
7.31332e-06
8.01117e-05
0.000227497
-0.000222307
6.65924e-06
6.50466e-05
0.000229355
-0.000224807
3.78671e-06
5.90962e-05
0.00023405
-0.000229363
9.63945e-07
6.31493e-05
0.000228405
-0.000223648
-2.11872e-07
7.0151e-05
0.000216135
-0.000211809
-2.21027e-11
7.48103e-05
0.000207067
-0.000203204
2.11834e-07
7.48103e-05
0.000207067
-0.000203204
-9.63971e-07
7.01509e-05
0.000216135
-0.000211809
-3.78673e-06
6.31492e-05
0.000228405
-0.000223648
-6.65926e-06
5.90962e-05
0.00023405
-0.000229363
-7.31335e-06
6.50467e-05
0.000229355
-0.000224807
-5.68654e-06
8.01117e-05
0.000227497
-0.000222307
-3.85411e-06
8.66559e-05
0.000246653
-0.000240634
-2.91669e-06
6.15418e-05
0.000280858
-0.000275529
-2.76635e-06
3.65226e-06
0.000287786
-0.000284655
-3.40195e-05
0.000178172
-0.000179827
-1.43375e-06
-3.19676e-05
0.000194972
-0.00019559
-4.711e-06
2.56431e-06
0.000303445
-0.000299079
-3.62411e-06
5.48153e-05
0.000294644
-0.000289005
1.4564e-09
7.72084e-05
0.000265912
-0.00026009
3.23952e-06
7.18961e-05
0.000253138
-0.000248161
3.42937e-06
6.02975e-05
0.000257626
-0.000253067
1.19246e-06
5.65992e-05
0.000261919
-0.000257185
-8.19438e-07
6.0464e-05
0.000256402
-0.000251704
-1.09593e-06
6.62195e-05
0.000245644
-0.000241436
-2.89409e-11
6.99557e-05
0.000237881
-0.000234123
1.09588e-06
6.99557e-05
0.000237881
-0.000234123
8.19393e-07
6.62194e-05
0.000245644
-0.000241436
-1.19249e-06
6.04639e-05
0.000256402
-0.000251704
-3.42939e-06
5.65992e-05
0.000261919
-0.000257185
-3.23954e-06
6.02976e-05
0.000257626
-0.000253067
-1.47061e-09
7.18962e-05
0.000253138
-0.000248161
3.62411e-06
7.72084e-05
0.000265912
-0.00026009
4.711e-06
5.48153e-05
0.000294644
-0.000289005
1.43375e-06
2.56432e-06
0.000303445
-0.000299079
-3.19676e-05
0.000194972
-0.00019559
-6.23319e-06
-2.62201e-05
0.00021415
-0.000213664
-1.2943e-05
3.4502e-06
0.000325088
-0.000319264
-1.16005e-05
4.72457e-05
0.000314033
-0.000307806
-6.29787e-06
6.60545e-05
0.000291793
-0.000285942
-1.84451e-06
6.23099e-05
0.000286687
-0.000281554
-9.43157e-07
5.43558e-05
0.000294359
-0.000289318
-2.28333e-06
5.26855e-05
0.000298302
-0.000293048
-3.11908e-06
5.62321e-05
0.000292942
-0.000287875
-2.21044e-06
6.07917e-05
0.000283688
-0.000279168
-3.6925e-11
6.36647e-05
0.000277209
-0.000273129
2.21037e-06
6.36646e-05
0.000277209
-0.000273129
3.11902e-06
6.07916e-05
0.000283688
-0.000279169
2.28328e-06
5.6232e-05
0.000292943
-0.000287875
9.43128e-07
5.26854e-05
0.000298302
-0.000293048
1.8445e-06
5.43559e-05
0.000294359
-0.000289318
6.29787e-06
6.231e-05
0.000286687
-0.000281554
1.16005e-05
6.60545e-05
0.000291793
-0.000285942
1.2943e-05
4.72457e-05
0.000314033
-0.000307806
6.23318e-06
3.45021e-06
0.000325088
-0.000319264
-2.62201e-05
0.00021415
-0.000213664
-1.07756e-05
-1.70807e-05
0.000237945
-0.000236309
-2.06936e-05
5.60247e-06
0.000362474
-0.000354708
-1.94289e-05
3.81203e-05
0.00035351
-0.000345649
-1.29826e-05
5.24787e-05
0.000340494
-0.000333364
-7.7601e-06
5.02704e-05
0.00034606
-0.000339243
-6.13428e-06
4.55263e-05
0.000358901
-0.000351697
-6.27151e-06
4.53251e-05
0.000363653
-0.000356155
-5.6732e-06
4.84067e-05
0.000358842
-0.000351615
-3.42422e-06
5.18753e-05
0.000350894
-0.000344227
-4.44134e-11
5.39876e-05
0.000345456
-0.000339203
3.42413e-06
5.39876e-05
0.000345456
-0.000339203
5.67311e-06
5.18752e-05
0.000350894
-0.000344227
6.27145e-06
4.84066e-05
0.000358842
-0.000351615
6.13425e-06
4.5325e-05
0.000363653
-0.000356155
7.76011e-06
4.55263e-05
0.000358901
-0.000351697
1.29827e-05
5.02704e-05
0.00034606
-0.000339243
1.94289e-05
5.24788e-05
0.000340494
-0.000333364
2.06936e-05
3.81203e-05
0.00035351
-0.000345649
1.07756e-05
5.60249e-06
0.000362474
-0.000354708
-1.70807e-05
0.000237945
-0.000236309
-1.36141e-05
-6.26277e-06
0.000268803
-0.000266006
-2.58126e-05
7.46214e-06
0.000434188
-0.000423849
-2.52044e-05
2.5956e-05
0.000449809
-0.000438253
-1.84223e-05
3.40938e-05
0.000459676
-0.000448073
-1.28304e-05
3.21173e-05
0.000486778
-0.000474217
-1.04573e-05
2.89679e-05
0.000512949
-0.000498764
-9.36021e-06
2.91084e-05
0.000524349
-0.00050923
-7.49784e-06
3.14339e-05
0.000523523
-0.000508413
-4.23078e-06
3.39307e-05
0.00051844
-0.000503762
-4.51776e-11
3.54136e-05
0.000514518
-0.000500175
4.23069e-06
3.54136e-05
0.000514519
-0.000500175
7.49774e-06
3.39306e-05
0.00051844
-0.000503762
9.36013e-06
3.14338e-05
0.000523523
-0.000508413
1.04573e-05
2.91083e-05
0.000524349
-0.00050923
1.28304e-05
2.89679e-05
0.000512949
-0.000498764
1.84224e-05
3.21173e-05
0.000486778
-0.000474217
2.52045e-05
3.40939e-05
0.000459676
-0.000448073
2.58126e-05
2.59561e-05
0.000449809
-0.000438253
1.36141e-05
7.46216e-06
0.000434188
-0.000423849
-6.26279e-06
0.000268803
-0.000266006
-1.22687e-05
0.000308748
-0.000305124
2.38218e-06
-2.31377e-05
0.000567929
-0.000555725
6.12673e-06
-2.24149e-05
0.000674124
-0.000658819
9.92868e-06
-1.57922e-05
0.000757735
-0.000740148
9.88418e-06
-1.03994e-05
0.000845567
-0.000824527
5.68462e-06
-8.10639e-06
0.000918402
-0.000893665
1.93828e-06
-7.11644e-06
0.000962394
-0.000935077
8.00892e-07
-5.66413e-06
0.000982914
-0.000954278
1.34588e-06
-3.18669e-06
0.000990755
-0.000961589
2.28728e-06
-2.80735e-11
0.000993123
-0.000963802
2.90657e-06
3.18663e-06
0.000993123
-0.000963802
2.90655e-06
5.66405e-06
0.000990756
-0.00096159
2.28721e-06
7.11637e-06
0.000982914
-0.000954278
1.34579e-06
8.10635e-06
0.000962395
-0.000935077
8.00793e-07
1.03994e-05
0.000918402
-0.000893665
1.93821e-06
1.57922e-05
0.000845567
-0.000824527
5.6846e-06
2.24149e-05
0.000757735
-0.000740148
9.88421e-06
2.31377e-05
0.000674123
-0.000658819
9.92873e-06
1.22687e-05
0.000567929
-0.000555725
6.12674e-06
0.000308748
-0.000305124
2.38217e-06
1.07059e-05
-7.65513e-06
0.000108019
1.42367e-06
2.27683e-05
4.04625e-05
0.00018482
-5.06348e-05
2.64259e-05
9.08761e-05
0.000168163
-9.7091e-05
2.22585e-05
0.000106632
0.000126155
-0.000107685
1.54223e-05
9.19814e-05
0.000103193
-9.06005e-05
9.59661e-06
6.98e-05
0.00010616
-6.88447e-05
5.41475e-06
6.03282e-05
0.000112849
-6.10018e-05
2.50927e-06
6.70006e-05
0.00010489
-6.90942e-05
8.07675e-07
7.98666e-05
8.79383e-05
-8.29444e-05
2.65429e-12
8.89117e-05
7.5964e-05
-9.25957e-05
-8.0766e-07
8.89117e-05
7.5964e-05
-9.25957e-05
-2.50923e-06
7.98666e-05
8.79383e-05
-8.29444e-05
-5.4147e-06
6.70006e-05
0.00010489
-6.90942e-05
-9.59657e-06
6.03283e-05
0.000112849
-6.10018e-05
-1.54223e-05
6.98001e-05
0.000106159
-6.88447e-05
-2.22585e-05
9.19814e-05
0.000103193
-9.06005e-05
-2.64259e-05
0.000106632
0.000126155
-0.000107685
-2.27684e-05
9.08761e-05
0.000168163
-9.70911e-05
-1.07059e-05
4.04625e-05
0.00018482
-5.06348e-05
-7.65513e-06
0.000108019
1.42366e-06
1.03124e-05
-1.37508e-05
0.000116322
2.15839e-05
3.09283e-05
0.000204369
2.51105e-05
8.47258e-05
0.000192701
2.1571e-05
0.000104998
0.00015022
1.55392e-05
9.27139e-05
0.000124337
1.0204e-05
7.04717e-05
0.000125112
6.05713e-06
5.98323e-05
0.000131544
2.94497e-06
6.53219e-05
0.000124228
1.00727e-06
7.72356e-05
0.000107425
-2.06512e-12
8.56671e-05
9.52101e-05
-1.00727e-06
8.56671e-05
9.52101e-05
-2.94494e-06
7.72355e-05
0.000107425
-6.0571e-06
6.53218e-05
0.000124228
-1.02039e-05
5.98323e-05
0.000131543
-1.55392e-05
7.04717e-05
0.000125111
-2.15711e-05
9.2714e-05
0.000124337
-2.51105e-05
0.000104998
0.00015022
-2.15839e-05
8.47258e-05
0.000192701
-1.03124e-05
3.09283e-05
0.000204369
-1.37508e-05
0.000116322
9.92132e-06
-1.95866e-05
0.000125272
1.99451e-05
2.21429e-05
0.000222989
2.30351e-05
7.85951e-05
0.000215576
2.02056e-05
0.000102465
0.000173318
1.52824e-05
9.23102e-05
0.000145494
1.06454e-05
7.04556e-05
0.000144458
6.57022e-06
5.92662e-05
0.000150495
3.24242e-06
6.38326e-05
0.00014383
1.1198e-06
7.48067e-05
0.000127545
-6.98378e-12
8.26117e-05
0.000115395
-1.1198e-06
8.26116e-05
0.000115395
-3.24241e-06
7.48066e-05
0.000127545
-6.5702e-06
6.38325e-05
0.00014383
-1.06454e-05
5.92662e-05
0.000150495
-1.52824e-05
7.04557e-05
0.000144458
-2.02056e-05
9.23102e-05
0.000145494
-2.30352e-05
0.000102465
0.000173318
-1.99451e-05
7.8595e-05
0.000215576
-9.92133e-06
2.21429e-05
0.000222989
-1.95866e-05
0.000125272
9.27933e-06
-2.49928e-05
0.000135309
1.76599e-05
1.44402e-05
0.000240892
2.00978e-05
7.27743e-05
0.000236526
1.80332e-05
9.90616e-05
0.000195056
1.44464e-05
9.0647e-05
0.000166602
1.07091e-05
6.9695e-05
0.000164574
6.82099e-06
5.8667e-05
0.000170231
3.35536e-06
6.25996e-05
0.000164057
1.1301e-06
7.25803e-05
0.000148411
-1.14506e-11
7.9676e-05
0.000136532
-1.13012e-06
7.96759e-05
0.000136532
-3.35535e-06
7.25802e-05
0.000148411
-6.82098e-06
6.25996e-05
0.000164057
-1.07091e-05
5.8667e-05
0.000170231
-1.44464e-05
6.96951e-05
0.000164574
-1.80333e-05
9.0647e-05
0.000166602
-2.00979e-05
9.90616e-05
0.000195056
-1.76599e-05
7.27743e-05
0.000236526
-9.27934e-06
1.44401e-05
0.000240892
-2.49928e-05
0.000135309
8.15299e-06
-2.96384e-05
0.00014686
1.4374e-05
8.08632e-06
0.000257972
1.60721e-05
6.72893e-05
0.000255239
1.49419e-05
9.4709e-05
0.000215341
1.29204e-05
8.75994e-05
0.000187856
1.02332e-05
6.80889e-05
0.00018585
6.63871e-06
5.79567e-05
0.000191187
3.16686e-06
6.15635e-05
0.000185345
9.90123e-07
7.05192e-05
0.000170477
-1.57589e-11
7.6831e-05
0.0001591
-9.90147e-07
7.68309e-05
0.0001591
-3.16687e-06
7.05191e-05
0.000170477
-6.63871e-06
6.15635e-05
0.000185345
-1.02332e-05
5.79567e-05
0.000191187
-1.29204e-05
6.8089e-05
0.00018585
-1.49419e-05
8.75994e-05
0.000187856
-1.60721e-05
9.4709e-05
0.000215341
-1.4374e-05
6.72893e-05
0.000255239
-8.15299e-06
8.08628e-06
0.000257972
-2.96385e-05
0.00014686
6.24043e-06
-3.29071e-05
0.000160332
9.75373e-06
3.41302e-06
0.00027426
1.081e-05
6.20086e-05
0.000271425
1.08993e-05
8.91781e-05
0.000234116
1.06391e-05
8.30192e-05
0.000209464
9.0593e-06
6.55684e-05
0.000208577
5.84113e-06
5.70248e-05
0.000213647
2.5462e-06
6.05502e-05
0.000207998
6.38591e-07
6.84439e-05
0.000194111
-2.0377e-11
7.39131e-05
0.000183518
-6.38624e-07
7.3913e-05
0.000183518
-2.54622e-06
6.84438e-05
0.000194111
-5.84114e-06
6.05501e-05
0.000207998
-9.05932e-06
5.70249e-05
0.000213647
-1.06391e-05
6.55684e-05
0.000208577
-1.08993e-05
8.30193e-05
0.000209464
-1.081e-05
8.91781e-05
0.000234116
-9.75373e-06
6.20085e-05
0.000271425
-6.24043e-06
3.41299e-06
0.00027426
-3.29071e-05
0.000160332
3.29265e-06
-3.39682e-05
0.00017594
3.63084e-06
7.0385e-07
0.000290157
4.36834e-06
5.66385e-05
0.000285491
6.00111e-06
8.22276e-05
0.000251971
7.56359e-06
7.68813e-05
0.000232072
7.022e-06
6.21663e-05
0.000233299
4.26042e-06
5.57445e-05
0.000238092
1.39095e-06
5.92973e-05
0.000232527
3.29495e-08
6.60757e-05
0.000219861
-2.57639e-11
7.06648e-05
0.000210349
-3.29941e-08
7.06648e-05
0.000210349
-1.39098e-06
6.60756e-05
0.000219861
-4.26044e-06
5.92972e-05
0.000232527
-7.02202e-06
5.57445e-05
0.000238092
-7.56361e-06
6.21664e-05
0.000233299
-6.00113e-06
7.68813e-05
0.000232072
-4.36835e-06
8.22276e-05
0.000251971
-3.63084e-06
5.66385e-05
0.000285491
-3.29265e-06
7.03827e-07
0.000290157
-3.39683e-05
0.00017594
-6.98446e-07
-3.20303e-05
0.000193732
-3.76336e-06
5.87852e-08
0.000307155
-2.9629e-06
5.08143e-05
0.000299668
4.28791e-07
7.36686e-05
0.00027108
3.63691e-06
6.92884e-05
0.000257523
3.95229e-06
5.7889e-05
0.000261588
1.77205e-06
5.38105e-05
0.000266033
-3.51788e-07
5.73368e-05
0.000260486
-8.42917e-07
6.29629e-05
0.000249248
-3.23174e-11
6.66671e-05
0.000241036
8.42858e-07
6.66671e-05
0.000241036
3.51743e-07
6.29628e-05
0.000249248
-1.77208e-06
5.73367e-05
0.000260486
-3.95231e-06
5.38105e-05
0.000266033
-3.63692e-06
5.7889e-05
0.000261588
-4.28796e-07
6.92884e-05
0.000257523
2.96291e-06
7.36686e-05
0.00027108
3.76336e-06
5.08143e-05
0.000299668
6.98442e-07
5.87743e-08
0.000307155
-3.20303e-05
0.000193732
-5.30586e-06
-2.65667e-05
0.000213992
-1.17535e-05
1.23624e-06
0.000330358
-1.07667e-05
4.4043e-05
0.000319817
-5.72018e-06
6.32436e-05
0.000297172
-1.26549e-06
6.0123e-05
0.000291397
-2.63781e-07
5.22449e-05
0.000299001
-1.62856e-06
5.03098e-05
0.000303167
-2.63734e-06
5.36605e-05
0.000297628
-1.96146e-06
5.8158e-05
0.000287817
-4.00492e-11
6.10258e-05
0.000280889
1.96138e-06
6.10258e-05
0.000280889
2.63728e-06
5.81579e-05
0.000287817
1.62852e-06
5.36604e-05
0.000297628
2.63766e-07
5.03098e-05
0.000303167
1.26549e-06
5.22449e-05
0.000299001
5.7202e-06
6.0123e-05
0.000291397
1.07667e-05
6.32436e-05
0.000297172
1.17536e-05
4.4043e-05
0.000319817
5.30586e-06
1.23624e-06
0.000330358
-2.65667e-05
0.000213992
-9.69661e-06
-1.78292e-05
0.000238904
-1.92829e-05
3.60628e-06
0.00036969
-1.83785e-05
3.56114e-05
0.000361037
-1.21912e-05
5.02299e-05
0.00034732
-6.97393e-06
4.83202e-05
0.000352645
-5.32234e-06
4.35131e-05
0.000365981
-5.5778e-06
4.31097e-05
0.000371108
-5.20039e-06
4.60827e-05
0.000366043
-3.19016e-06
4.95339e-05
0.000357508
-4.75074e-11
5.1658e-05
0.000351634
3.19006e-06
5.16579e-05
0.000351634
5.20032e-06
4.95339e-05
0.000357508
5.57775e-06
4.60826e-05
0.000366043
5.32233e-06
4.31096e-05
0.000371108
6.97395e-06
4.3513e-05
0.000365981
1.21913e-05
4.83202e-05
0.000352645
1.83786e-05
5.02299e-05
0.00034732
1.9283e-05
3.56114e-05
0.000361037
9.6966e-06
3.60629e-06
0.000369691
-1.78293e-05
0.000238904
-1.25116e-05
-7.3432e-06
0.000270828
-2.43278e-05
5.93669e-06
0.000443673
-2.40063e-05
2.45608e-05
0.000460538
-1.74676e-05
3.30009e-05
0.000470366
-1.19214e-05
3.11359e-05
0.000498416
-9.6186e-06
2.7812e-05
0.000526348
-8.71591e-06
2.77718e-05
0.000538784
-7.09214e-06
3.00334e-05
0.000537949
-4.04012e-06
3.25421e-05
0.000532379
-4.89718e-11
3.40429e-05
0.000528093
4.04002e-06
3.40429e-05
0.000528094
7.09205e-06
3.2542e-05
0.00053238
8.71585e-06
3.00332e-05
0.000537949
9.61859e-06
2.77717e-05
0.000538785
1.19214e-05
2.78119e-05
0.000526348
1.74677e-05
3.11358e-05
0.000498416
2.40063e-05
3.30009e-05
0.000470366
2.43278e-05
2.45609e-05
0.000460538
1.25116e-05
5.9367e-06
0.000443673
-7.34322e-06
0.000270828
-1.13486e-05
0.000311513
1.23978e-06
-2.19385e-05
0.000578953
5.50286e-06
-2.14293e-05
0.000687774
1.04013e-05
-1.4991e-05
0.00077302
1.12773e-05
-9.66042e-06
0.000863799
7.57376e-06
-7.45089e-06
0.00093997
4.03433e-06
-6.61465e-06
0.00098627
3.06002e-06
-5.34393e-06
0.00100792
3.76035e-06
-3.03574e-06
0.00101616
4.82861e-06
-3.39679e-11
0.00101861
5.51783e-06
3.03567e-06
0.00101861
5.5178e-06
5.34385e-06
0.00101616
4.82853e-06
6.61459e-06
0.00100792
3.76024e-06
7.45087e-06
0.00098627
3.05991e-06
9.66045e-06
0.00093997
4.03425e-06
1.49911e-05
0.000863799
7.57375e-06
2.14293e-05
0.00077302
1.12773e-05
2.19385e-05
0.000687774
1.04013e-05
1.13486e-05
0.000578953
5.50286e-06
0.000311513
1.23977e-06
1.03619e-05
-8.87944e-06
0.000103126
3.41099e-06
2.21262e-05
3.3806e-05
0.000181633
-4.23835e-05
2.57223e-05
8.11756e-05
0.000169487
-8.60954e-05
2.16454e-05
9.74199e-05
0.000130491
-9.76789e-05
1.48649e-05
8.48828e-05
0.000108038
-8.29477e-05
9.10596e-06
6.42111e-05
0.000110415
-6.27079e-05
5.09206e-06
5.4711e-05
0.000116936
-5.47837e-05
2.38661e-06
6.05827e-05
0.00010915
-6.21373e-05
7.97169e-07
7.27665e-05
9.21639e-05
-7.54027e-05
-4.27244e-13
8.1436e-05
8.00305e-05
-8.47054e-05
-7.97161e-07
8.1436e-05
8.00306e-05
-8.47054e-05
-2.38658e-06
7.27665e-05
9.21639e-05
-7.54027e-05
-5.09202e-06
6.05827e-05
0.00010915
-6.21373e-05
-9.10593e-06
5.4711e-05
0.000116936
-5.47837e-05
-1.48649e-05
6.42111e-05
0.000110415
-6.2708e-05
-2.16454e-05
8.48829e-05
0.000108038
-8.29477e-05
-2.57223e-05
9.742e-05
0.000130491
-9.7679e-05
-2.21263e-05
8.11756e-05
0.000169487
-8.60954e-05
-1.03619e-05
3.3806e-05
0.000181633
-4.23835e-05
-8.87944e-06
0.000103126
3.41099e-06
1.00648e-05
-1.44591e-05
0.000111837
2.12077e-05
2.53422e-05
0.00020169
2.46968e-05
7.61053e-05
0.000194282
2.1161e-05
9.66232e-05
0.000154552
1.5105e-05
8.62488e-05
0.000129027
9.81202e-06
6.54334e-05
0.000129182
5.84687e-06
5.47409e-05
0.000135479
2.92226e-06
5.9391e-05
0.000128344
1.05094e-06
7.05823e-05
0.00011148
-4.94793e-12
7.86278e-05
9.90693e-05
-1.05094e-06
7.86278e-05
9.90693e-05
-2.92224e-06
7.05823e-05
0.00011148
-5.84685e-06
5.9391e-05
0.000128344
-9.81202e-06
5.47409e-05
0.000135479
-1.5105e-05
6.54334e-05
0.000129182
-2.1161e-05
8.62489e-05
0.000129027
-2.46968e-05
9.66232e-05
0.000154552
-2.12077e-05
7.61053e-05
0.000194282
-1.00648e-05
2.53421e-05
0.00020169
-1.44592e-05
0.000111837
9.73284e-06
-1.9929e-05
0.000121009
1.97768e-05
1.73584e-05
0.000220929
2.28877e-05
7.09384e-05
0.000217632
1.99997e-05
9.50097e-05
0.000177819
1.49713e-05
8.65997e-05
0.000150172
1.03578e-05
6.59983e-05
0.000148506
6.48049e-06
5.46635e-05
0.00015445
3.33451e-06
5.8402e-05
0.000147965
1.23042e-06
6.86982e-05
0.000131534
-9.80823e-12
7.61483e-05
0.000119105
-1.23043e-06
7.61482e-05
0.000119105
-3.3345e-06
6.86981e-05
0.000131534
-6.48049e-06
5.8402e-05
0.000147965
-1.03578e-05
5.46636e-05
0.000154449
-1.49713e-05
6.59983e-05
0.000148506
-1.99997e-05
8.65997e-05
0.000150172
-2.28877e-05
9.50097e-05
0.000177819
-1.97768e-05
7.09384e-05
0.000217632
-9.73284e-06
1.73584e-05
0.000220929
-1.99291e-05
0.000121009
9.20298e-06
-2.50773e-05
0.000131255
1.7689e-05
1.02817e-05
0.000239482
2.01533e-05
6.59186e-05
0.000239081
1.79981e-05
9.24465e-05
0.000199774
1.42714e-05
8.56463e-05
0.000171282
1.05499e-05
6.57354e-05
0.000168558
6.85198e-06
5.4452e-05
0.00017414
3.53862e-06
5.76002e-05
0.000168172
1.28886e-06
6.70043e-05
0.000152354
-1.40091e-11
7.38156e-05
0.000140154
-1.28888e-06
7.38155e-05
0.000140154
-3.53862e-06
6.70042e-05
0.000152354
-6.85199e-06
5.76001e-05
0.000168172
-1.055e-05
5.4452e-05
0.00017414
-1.42714e-05
6.57355e-05
0.000168558
-1.79981e-05
8.56464e-05
0.000171282
-2.01533e-05
9.24465e-05
0.000199774
-1.7689e-05
6.59185e-05
0.000239081
-9.20298e-06
1.02816e-05
0.000239482
-2.50773e-05
0.000131255
8.23306e-06
-2.95467e-05
0.000143096
1.46313e-05
4.46848e-06
0.000257387
1.63151e-05
6.11795e-05
0.000258294
1.50455e-05
8.88823e-05
0.000220175
1.28728e-05
8.32489e-05
0.000192426
1.02155e-05
6.45623e-05
0.000189681
6.80034e-06
5.40838e-05
0.00019497
3.43567e-06
5.6973e-05
0.000189337
1.18665e-06
6.54625e-05
0.000174268
-1.78348e-11
7.15634e-05
0.000162538
-1.18668e-06
7.15633e-05
0.000162538
-3.43568e-06
6.54624e-05
0.000174268
-6.80035e-06
5.6973e-05
0.000189337
-1.02156e-05
5.40838e-05
0.00019497
-1.28729e-05
6.45624e-05
0.000189681
-1.50455e-05
8.32489e-05
0.000192426
-1.63151e-05
8.88823e-05
0.000220175
-1.46313e-05
6.11795e-05
0.000258294
-8.23307e-06
4.46843e-06
0.000257387
-2.95467e-05
0.000143096
6.51433e-06
-3.27333e-05
0.000157004
1.02612e-05
2.65371e-07
0.000274717
1.12308e-05
5.66341e-05
0.000275001
1.11205e-05
8.41316e-05
0.000238977
1.07122e-05
7.92803e-05
0.00021384
9.19295e-06
6.24314e-05
0.000212228
6.14116e-06
5.34855e-05
0.000217297
2.89846e-06
5.63894e-05
0.000211825
8.67766e-07
6.39269e-05
0.000197678
-2.19053e-11
6.92494e-05
0.0001867
-8.67803e-07
6.92493e-05
0.0001867
-2.89848e-06
6.39268e-05
0.000197678
-6.14118e-06
5.63893e-05
0.000211825
-9.19297e-06
5.34855e-05
0.000217297
-1.07123e-05
6.24314e-05
0.000212228
-1.11206e-05
7.92803e-05
0.00021384
-1.12308e-05
8.41316e-05
0.000238977
-1.02612e-05
5.6634e-05
0.000275001
-6.51433e-06
2.6533e-07
0.000274717
-3.27333e-05
0.000157004
3.78495e-06
-3.38337e-05
0.000173256
4.39107e-06
-2.0464e-06
0.000291863
4.94475e-06
5.19908e-05
0.00028958
6.32365e-06
7.79373e-05
0.000256786
7.76066e-06
7.36882e-05
0.000236228
7.31688e-06
5.93533e-05
0.000236821
4.69716e-06
5.25177e-05
0.000241679
1.81643e-06
5.55743e-05
0.000236223
2.86837e-07
6.21039e-05
0.000223214
-2.67821e-11
6.65991e-05
0.000213286
-2.86883e-07
6.65991e-05
0.000213286
-1.81647e-06
6.21039e-05
0.000223214
-4.69718e-06
5.55743e-05
0.000236223
-7.31689e-06
5.25177e-05
0.000241679
-7.76067e-06
5.93533e-05
0.000236821
-6.32366e-06
7.36882e-05
0.000236228
-4.94475e-06
7.79373e-05
0.000256786
-4.39107e-06
5.19907e-05
0.00028958
-3.78495e-06
-2.04643e-06
0.000291863
-3.38337e-05
0.000173256
6.32809e-09
-3.20516e-05
0.000191944
-2.77868e-06
-2.40716e-06
0.0003103
-2.24999e-06
4.68692e-05
0.000304261
8.50138e-07
7.00663e-05
0.000275851
3.97463e-06
6.65115e-05
0.000261575
4.41562e-06
5.52823e-05
0.000265218
2.33063e-06
5.0823e-05
0.000269813
1.26277e-07
5.39929e-05
0.000264272
-5.76205e-07
5.94631e-05
0.000252591
-3.29287e-11
6.31161e-05
0.000243943
5.76146e-07
6.31161e-05
0.000243943
-1.26319e-07
5.9463e-05
0.000252591
-2.33066e-06
5.39928e-05
0.000264272
-4.41563e-06
5.0823e-05
0.000269813
-3.97463e-06
5.52823e-05
0.000265218
-8.50133e-07
6.65115e-05
0.000261575
2.25e-06
7.00663e-05
0.000275851
2.77868e-06
4.68692e-05
0.000304261
-6.32945e-09
-2.40718e-06
0.0003103
-3.20516e-05
0.000191944
-4.43175e-06
-2.6889e-05
0.000213261
-1.05735e-05
-9.96242e-07
0.000335089
-9.92031e-06
4.07498e-05
0.000325283
-5.18035e-06
6.02048e-05
0.000302293
-7.63555e-07
5.75784e-05
0.000295914
3.57909e-07
4.96785e-05
0.000303483
-9.84962e-07
4.7414e-05
0.000307919
-2.13892e-06
5.05201e-05
0.000302254
-1.69658e-06
5.49235e-05
0.000291914
-4.04291e-11
5.77669e-05
0.000284542
1.69651e-06
5.77669e-05
0.000284542
2.13886e-06
5.49234e-05
0.000291914
9.84934e-07
5.052e-05
0.000302254
-3.5791e-07
4.7414e-05
0.000307919
7.63571e-07
4.96785e-05
0.000303483
5.18038e-06
5.75784e-05
0.000295914
9.92033e-06
6.02048e-05
0.000302293
1.05735e-05
4.07498e-05
0.000325283
4.43175e-06
-9.9625e-07
0.000335089
-2.68891e-05
0.000213261
-8.71081e-06
-1.85384e-05
0.000239264
-1.79601e-05
1.59704e-06
0.000376347
-1.73903e-05
3.29579e-05
0.000368259
-1.14942e-05
4.76875e-05
0.000353942
-6.29838e-06
4.59292e-05
0.000359099
-4.58194e-06
4.0911e-05
0.000373032
-4.90146e-06
4.01911e-05
0.000378651
-4.7153e-06
4.29743e-05
0.000373402
-2.94289e-06
4.63594e-05
0.0003643
-4.81928e-11
4.84679e-05
0.00035799
2.9428e-06
4.84679e-05
0.00035799
4.71523e-06
4.63593e-05
0.0003643
4.90143e-06
4.29742e-05
0.000373403
4.58195e-06
4.0191e-05
0.000378651
6.29842e-06
4.0911e-05
0.000373032
1.14943e-05
4.59291e-05
0.000359099
1.73904e-05
4.76875e-05
0.000353942
1.79602e-05
3.29579e-05
0.000368259
8.7108e-06
1.59704e-06
0.000376347
-1.85384e-05
0.000239264
-1.15382e-05
-8.41661e-06
0.000272245
-2.30019e-05
4.21507e-06
0.000452519
-2.29498e-05
2.26503e-05
0.000470794
-1.66653e-05
3.11343e-05
0.000480635
-1.11613e-05
2.917e-05
0.000509671
-8.87527e-06
2.55259e-05
0.000539447
-8.10609e-06
2.51586e-05
0.000553048
-6.68613e-06
2.71975e-05
0.000552305
-3.84312e-06
2.95877e-05
0.000546308
-5.11964e-11
3.1041e-05
0.000541677
3.84302e-06
3.1041e-05
0.000541677
6.68605e-06
2.95876e-05
0.000546308
8.10604e-06
2.71974e-05
0.000552306
8.87528e-06
2.51585e-05
0.000553048
1.11613e-05
2.55258e-05
0.000539447
1.66653e-05
2.917e-05
0.000509671
2.29499e-05
3.11343e-05
0.000480635
2.30019e-05
2.26504e-05
0.000470794
1.15382e-05
4.21507e-06
0.000452519
-8.41663e-06
0.000272245
-1.05905e-05
0.000313755
-6.77453e-08
-2.09444e-05
0.000589404
4.11748e-06
-2.06538e-05
0.000700831
9.30268e-06
-1.44072e-05
0.000787493
1.04152e-05
-9.11293e-06
0.000880991
6.68344e-06
-6.93579e-06
0.000960403
2.91615e-06
-6.20362e-06
0.00100898
1.72067e-06
-5.07506e-06
0.00103171
2.27781e-06
-2.90711e-06
0.00104031
3.27145e-06
-3.93495e-11
0.00104282
3.92914e-06
2.90703e-06
0.00104282
3.92911e-06
5.07498e-06
0.00104031
3.27135e-06
6.20357e-06
0.00103171
2.27767e-06
6.93579e-06
0.00100898
1.72053e-06