/*--------------------------------*- C++ -*----------------------------------*\
  =========                 |
  \\      /  F ield         | OpenFOAM: The Open Source CFD Toolbox
   \\    /   O peration     | Website:  https://openfoam.org
    \\  /    A nd           | Version:  11
     \\/     M anipulation  |
\*---------------------------------------------------------------------------*/
FoamFile
{
    format      ascii;
    class       volVectorField;
    location    "804";
    object      U;
}
// * * * * * * * * * * * * * * * * * * * * * * * * * * * * * * * * * * * * * //

dimensions      [0 1 -1 0 0 0 0];

internalField   nonuniform List<vector> 
90300
(
(0.0917285 -0.00133431 0.00603278)
(0.150162 0.0452255 0.0305105)
(0.131356 0.0885087 0.0461755)
(0.0944541 0.0992859 0.0440012)
(0.0758642 0.0841076 0.0322101)
(0.0789547 0.064391 0.0208251)
(0.0842622 0.0572778 0.0125343)
(0.0776297 0.0643251 0.00631143)
(0.0642678 0.0762639 0.00227252)
(0.0550201 0.0844762 0.000431614)
(0.0550201 0.0844763 -0.000431594)
(0.0642678 0.076264 -0.00227246)
(0.0776297 0.0643251 -0.00631133)
(0.0842621 0.0572778 -0.0125342)
(0.0789546 0.0643911 -0.020825)
(0.0758641 0.0841077 -0.0322101)
(0.094454 0.0992859 -0.0440012)
(0.131356 0.0885087 -0.0461755)
(0.150162 0.0452255 -0.0305105)
(0.0917285 -0.0013343 -0.00603278)
(0.0984102 -0.00825682 0.00603217)
(0.166354 0.0347215 0.0287638)
(0.151907 0.0808411 0.043357)
(0.114784 0.0958634 0.0417273)
(0.0938477 0.0829844 0.0315258)
(0.095157 0.0631151 0.0214773)
(0.100304 0.0547669 0.0135626)
(0.094264 0.060681 0.00704088)
(0.0810954 0.0718228 0.00262322)
(0.0717069 0.0795498 0.000524689)
(0.0717069 0.0795498 -0.000524684)
(0.0810954 0.0718228 -0.00262318)
(0.094264 0.060681 -0.0070408)
(0.100304 0.0547669 -0.0135625)
(0.0951569 0.0631151 -0.0214772)
(0.0938476 0.0829844 -0.0315258)
(0.114784 0.0958635 -0.0417274)
(0.151907 0.0808411 -0.043357)
(0.166354 0.0347215 -0.0287638)
(0.0984101 -0.00825682 -0.00603217)
(0.105408 -0.0133507 0.00636767)
(0.180584 0.02672 0.0267519)
(0.16974 0.0750823 0.0394861)
(0.133141 0.0932448 0.038172)
(0.110869 0.0823301 0.0299651)
(0.110782 0.0628528 0.0217272)
(0.115608 0.0539051 0.0143774)
(0.110081 0.0588271 0.00755183)
(0.0974134 0.0689497 0.00277913)
(0.0881662 0.076024 0.000545552)
(0.0881662 0.076024 -0.000545563)
(0.0974134 0.0689497 -0.00277911)
(0.110081 0.0588271 -0.00755178)
(0.115607 0.0539051 -0.0143773)
(0.110782 0.0628529 -0.0217272)
(0.110869 0.0823301 -0.0299652)
(0.133141 0.0932448 -0.0381721)
(0.16974 0.0750823 -0.0394862)
(0.180584 0.02672 -0.0267519)
(0.105408 -0.0133507 -0.00636767)
(0.113156 -0.0182925 0.00656396)
(0.19405 0.0192593 0.0238705)
(0.185878 0.0695132 0.0342781)
(0.150257 0.0902494 0.0331717)
(0.127777 0.0810646 0.0272451)
(0.127034 0.0622689 0.0211898)
(0.131556 0.0532129 0.0146613)
(0.126382 0.0574333 0.00772211)
(0.114218 0.0666646 0.00274079)
(0.105215 0.0731153 0.000501505)
(0.105215 0.0731152 -0.000501532)
(0.114218 0.0666645 -0.00274078)
(0.126382 0.0574332 -0.00772207)
(0.131556 0.0532129 -0.0146613)
(0.127034 0.062269 -0.0211899)
(0.127777 0.0810647 -0.0272452)
(0.150257 0.0902494 -0.0331718)
(0.185878 0.0695132 -0.0342781)
(0.19405 0.0192593 -0.0238705)
(0.113156 -0.0182925 -0.00656396)
(0.121929 -0.0227707 0.0065031)
(0.206569 0.0127959 0.0194826)
(0.200136 0.0641739 0.0271432)
(0.166277 0.0864421 0.0264285)
(0.144885 0.078646 0.0232411)
(0.144237 0.0609716 0.019678)
(0.148482 0.0524074 0.0141073)
(0.143581 0.0561674 0.00725264)
(0.13207 0.0644658 0.00233061)
(0.123494 0.0702341 0.00033969)
(0.123494 0.0702341 -0.000339733)
(0.13207 0.0644657 -0.00233062)
(0.143581 0.0561674 -0.00725262)
(0.148482 0.0524075 -0.0141073)
(0.144237 0.0609717 -0.0196781)
(0.144885 0.078646 -0.0232411)
(0.166277 0.0864421 -0.0264285)
(0.200136 0.0641739 -0.0271432)
(0.206569 0.0127959 -0.0194826)
(0.121929 -0.0227707 -0.00650311)
(0.132036 -0.0263784 0.00586207)
(0.218238 0.00757953 0.0129092)
(0.212382 0.0590389 0.0177093)
(0.181192 0.0817107 0.017856)
(0.162347 0.0749735 0.0179205)
(0.162585 0.0589069 0.0169806)
(0.166575 0.0514235 0.0123964)
(0.16188 0.0549492 0.0058776)
(0.15122 0.0622898 0.00139331)
(0.143302 0.067324 1.04249e-05)
(0.143302 0.067324 -1.04862e-05)
(0.15122 0.0622897 -0.00139335)
(0.16188 0.0549491 -0.0058776)
(0.166574 0.0514235 -0.0123964)
(0.162585 0.058907 -0.0169806)
(0.162347 0.0749736 -0.0179206)
(0.181192 0.0817107 -0.017856)
(0.212382 0.0590389 -0.0177093)
(0.218238 0.00757951 -0.0129092)
(0.132036 -0.0263784 -0.00586207)
(0.14361 -0.0284672 0.0043148)
(0.229437 0.00392761 0.00368026)
(0.223046 0.0539795 0.00593189)
(0.195536 0.075832 0.00769745)
(0.180692 0.0699543 0.0113618)
(0.182504 0.0560441 0.0128567)
(0.186215 0.0501429 0.00921293)
(0.181682 0.0535689 0.00338912)
(0.172079 0.0599233 -0.000165847)
(0.165045 0.064195 -0.000513917)
(0.165045 0.064195 0.000513835)
(0.172079 0.0599232 0.00016579)
(0.181682 0.0535689 -0.00338915)
(0.186215 0.0501429 -0.00921296)
(0.182504 0.0560442 -0.0128568)
(0.180692 0.0699543 -0.0113619)
(0.195536 0.0758321 -0.00769748)
(0.223046 0.0539795 -0.00593191)
(0.229437 0.0039276 -0.00368027)
(0.14361 -0.0284672 -0.0043148)
(0.156638 -0.0282309 0.00169638)
(0.241464 0.00216446 -0.00790187)
(0.233933 0.0486468 -0.007749)
(0.211022 0.0686469 -0.00356317)
(0.201303 0.0636111 0.00362746)
(0.205136 0.0524208 0.00700988)
(0.208509 0.0484033 0.00429159)
(0.204123 0.0517329 -0.000327688)
(0.195753 0.0570518 -0.00238067)
(0.189755 0.0605473 -0.0012424)
(0.189755 0.0605473 0.00124229)
(0.195753 0.0570517 0.00238059)
(0.204123 0.0517328 0.000327625)
(0.208509 0.0484033 -0.00429164)
(0.205136 0.0524208 -0.00700991)
(0.201303 0.0636111 -0.00362749)
(0.211022 0.068647 0.00356316)
(0.233933 0.0486468 0.007749)
(0.241464 0.00216446 0.00790187)
(0.156638 -0.0282309 -0.00169639)
(0.171563 -0.0249603 -0.00173009)
(0.258292 0.00216459 -0.0205726)
(0.249319 0.0427853 -0.0224404)
(0.231835 0.0601283 -0.0154985)
(0.228205 0.0563246 -0.00546914)
(0.234454 0.0482096 -0.000836464)
(0.237537 0.0460829 -0.0024289)
(0.233341 0.0492085 -0.00518018)
(0.226192 0.0534881 -0.00518359)
(0.221211 0.0562229 -0.00215092)
(0.221211 0.0562229 0.00215078)
(0.226192 0.053488 0.00518347)
(0.233341 0.0492085 0.00518008)
(0.237537 0.0460829 0.00242884)
(0.234454 0.0482096 0.000836441)
(0.228205 0.0563246 0.00546914)
(0.231835 0.0601283 0.0154985)
(0.249319 0.0427853 0.0224404)
(0.258292 0.0021646 0.0205726)
(0.171563 -0.0249604 0.00173008)
(0.190168 -0.0185579 -0.00512024)
(0.287599 0.00360709 -0.0322945)
(0.280515 0.035826 -0.0365774)
(0.270584 0.0497245 -0.0275237)
(0.275342 0.0471871 -0.0157412)
(0.285545 0.0419463 -0.0102803)
(0.289258 0.0412303 -0.0102688)
(0.285543 0.0439843 -0.0106209)
(0.27944 0.0472902 -0.00824775)
(0.275275 0.0493418 -0.00312953)
(0.275275 0.0493417 0.00312937)
(0.27944 0.0472902 0.00824759)
(0.285544 0.0439842 0.0106208)
(0.289258 0.0412303 0.0102688)
(0.285545 0.0419463 0.0102803)
(0.275342 0.0471872 0.0157413)
(0.270584 0.0497245 0.0275238)
(0.280515 0.0358261 0.0365775)
(0.287599 0.0036071 0.0322945)
(0.190168 -0.018558 0.00512023)
(0.214384 -0.00969878 -0.00726075)
(0.344089 0.00591977 -0.0394031)
(0.356437 0.0279667 -0.0465969)
(0.364621 0.0381966 -0.0368858)
(0.386166 0.0373172 -0.0245137)
(0.40658 0.0348543 -0.0183813)
(0.415408 0.0354276 -0.0165493)
(0.41483 0.0379993 -0.0146293)
(0.411005 0.0406285 -0.0103216)
(0.408036 0.0421752 -0.00375118)
(0.408036 0.0421752 0.00375102)
(0.411005 0.0406284 0.0103214)
(0.41483 0.0379993 0.0146291)
(0.415408 0.0354275 0.0165492)
(0.40658 0.0348542 0.0183813)
(0.386166 0.0373172 0.0245138)
(0.364621 0.0381966 0.0368859)
(0.356437 0.0279668 0.046597)
(0.344089 0.00591979 0.0394031)
(0.214384 -0.00969879 0.00726074)
(0.245916 -0.000647805 -0.00668209)
(0.450224 0.00665637 -0.0351195)
(0.534416 0.0152212 -0.042017)
(0.600883 0.0181543 -0.0323681)
(0.670173 0.0153335 -0.0203033)
(0.727285 0.0122662 -0.0144265)
(0.761698 0.011686 -0.0126339)
(0.777766 0.0127463 -0.0110776)
(0.783944 0.0140745 -0.0077833)
(0.785836 0.014893 -0.00281929)
(0.785836 0.014893 0.00281919)
(0.783944 0.0140745 0.00778317)
(0.777767 0.0127462 0.0110775)
(0.761699 0.0116859 0.0126338)
(0.727285 0.0122662 0.0144265)
(0.670173 0.0153335 0.0203034)
(0.600882 0.0181543 0.0323682)
(0.534416 0.0152212 0.042017)
(0.450224 0.00665638 0.0351195)
(0.245917 -0.000647816 0.00668208)
(0.0882665 -0.00263041 0.00580919)
(0.148953 0.0384598 0.0299038)
(0.134022 0.0785649 0.0453124)
(0.0993535 0.0895767 0.0430876)
(0.0807569 0.0765004 0.0313743)
(0.0832823 0.058307 0.02002)
(0.0886528 0.0510517 0.0119398)
(0.0822771 0.0570728 0.00606966)
(0.068838 0.0680825 0.00224802)
(0.0593729 0.0758044 0.00044773)
(0.0593729 0.0758044 -0.000447723)
(0.068838 0.0680825 -0.00224798)
(0.082277 0.0570728 -0.00606958)
(0.0886527 0.0510517 -0.0119397)
(0.0832822 0.0583071 -0.02002)
(0.0807568 0.0765004 -0.0313743)
(0.0993535 0.0895767 -0.0430876)
(0.134022 0.0785649 -0.0453125)
(0.148953 0.0384598 -0.0299038)
(0.0882665 -0.00263041 -0.00580919)
(0.0947791 -0.00915445 0.00586672)
(0.164445 0.0295145 0.0284609)
(0.153404 0.0732068 0.0428461)
(0.118339 0.0884688 0.0412052)
(0.0975034 0.0772878 0.030954)
(0.0983608 0.058645 0.0208262)
(0.103543 0.0501225 0.0131459)
(0.0976376 0.0551705 0.00700437)
(0.0842658 0.065544 0.00275849)
(0.0745991 0.0728516 0.000596845)
(0.0745992 0.0728516 -0.000596854)
(0.0842658 0.065544 -0.00275847)
(0.0976375 0.0551705 -0.00700431)
(0.103543 0.0501225 -0.0131458)
(0.0983607 0.0586451 -0.0208262)
(0.0975034 0.0772878 -0.030954)
(0.118339 0.0884688 -0.0412052)
(0.153403 0.0732068 -0.0428461)
(0.164445 0.0295145 -0.0284609)
(0.0947791 -0.00915445 -0.00586673)
(0.10191 -0.0139571 0.0062401)
(0.179168 0.0219109 0.0266541)
(0.171525 0.0679728 0.0392559)
(0.136697 0.0865778 0.0379574)
(0.114383 0.0772871 0.0296268)
(0.113827 0.0588074 0.0212634)
(0.118696 0.0495739 0.0141597)
(0.113292 0.0537047 0.00770693)
(0.100334 0.0632465 0.00306121)
(0.0907319 0.0700275 0.000671909)
(0.0907319 0.0700275 -0.000671936)
(0.100334 0.0632464 -0.00306121)
(0.113292 0.0537047 -0.00770689)
(0.118696 0.049574 -0.0141597)
(0.113827 0.0588074 -0.0212634)
(0.114383 0.0772871 -0.0296269)
(0.136697 0.0865778 -0.0379575)
(0.171525 0.0679728 -0.0392559)
(0.179168 0.0219109 -0.0266541)
(0.10191 -0.0139571 -0.0062401)
(0.109881 -0.0186909 0.00653171)
(0.19327 0.0149871 0.024052)
(0.188134 0.0629866 0.0343091)
(0.154041 0.0841452 0.0331935)
(0.131307 0.0765078 0.0271282)
(0.129992 0.058573 0.0209524)
(0.134554 0.0491633 0.014665)
(0.129528 0.0526348 0.00803846)
(0.117079 0.0613683 0.00311461)
(0.107703 0.0675897 0.000658039)
(0.107703 0.0675896 -0.000658082)
(0.117079 0.0613682 -0.00311462)
(0.129528 0.0526348 -0.00803844)
(0.134554 0.0491633 -0.014665)
(0.129992 0.0585731 -0.0209524)
(0.131307 0.0765079 -0.0271282)
(0.154041 0.0841452 -0.0331935)
(0.188134 0.0629865 -0.0343091)
(0.19327 0.0149871 -0.024052)
(0.109881 -0.0186909 -0.00653171)
(0.119001 -0.022979 0.00660302)
(0.206607 0.00905546 0.0200064)
(0.202929 0.0582807 0.0274891)
(0.170262 0.0809569 0.0266814)
(0.148399 0.0745882 0.0233122)
(0.147119 0.0576112 0.0196598)
(0.151413 0.0486386 0.0143515)
(0.146654 0.051717 0.00774452)
(0.13484 0.0596149 0.00279113)
(0.125876 0.0652174 0.000520429)
(0.125876 0.0652173 -0.000520488)
(0.13484 0.0596149 -0.00279115)
(0.146654 0.0517169 -0.00774452)
(0.151413 0.0486387 -0.0143515)
(0.147119 0.0576113 -0.0196599)
(0.148399 0.0745883 -0.0233122)
(0.170262 0.0809569 -0.0266814)
(0.202929 0.0582807 -0.0274891)
(0.206607 0.00905543 -0.0200064)
(0.119001 -0.022979 -0.00660302)
(0.12959 -0.0264263 0.00615061)
(0.219218 0.00438566 0.0138274)
(0.215686 0.0538302 0.0183807)
(0.185303 0.0768921 0.0183301)
(0.165802 0.0714284 0.0181596)
(0.165411 0.0558914 0.0171875)
(0.169473 0.0479737 0.0128933)
(0.164885 0.0509038 0.00654526)
(0.153883 0.057933 0.00193435)
(0.145561 0.0628525 0.000212031)
(0.145561 0.0628524 -0.000212105)
(0.153883 0.0579329 -0.0019344)
(0.164885 0.0509037 -0.00654528)
(0.169473 0.0479738 -0.0128933)
(0.165411 0.0558915 -0.0171876)
(0.165802 0.0714284 -0.0181596)
(0.185303 0.076892 -0.0183301)
(0.215686 0.0538302 -0.0183807)
(0.219218 0.00438563 -0.0138274)
(0.12959 -0.0264263 -0.00615062)
(0.141804 -0.0284104 0.00485375)
(0.231444 0.00124123 0.00503333)
(0.226761 0.0494964 0.00691464)
(0.199646 0.0717438 0.00836618)
(0.184028 0.0669609 0.0117666)
(0.185291 0.0534142 0.0133137)
(0.189109 0.0470905 0.00996398)
(0.184619 0.0500331 0.00420929)
(0.174627 0.0561595 0.000432787)
(0.167183 0.0603564 -0.000299304)
(0.167183 0.0603564 0.00029921)
(0.174627 0.0561595 -0.000432853)
(0.184619 0.0500331 -0.00420932)
(0.189109 0.0470905 -0.00996401)
(0.185291 0.0534143 -0.0133137)
(0.184028 0.0669609 -0.0117666)
(0.199646 0.0717438 -0.0083662)
(0.226761 0.0494964 -0.00691464)
(0.231444 0.0012412 -0.00503333)
(0.141804 -0.0284104 -0.00485376)
(0.155661 -0.0282056 0.00252131)
(0.244503 -8.22769e-05 -0.00611598)
(0.23795 0.0449244 -0.00645287)
(0.215016 0.0653114 -0.00270859)
(0.204507 0.0611646 0.00423275)
(0.207965 0.0501842 0.00775603)
(0.211479 0.0457962 0.0052834)
(0.207047 0.0487717 0.000602949)
(0.198236 0.0539462 -0.0017566)
(0.19184 0.0573993 -0.00102554)
(0.19184 0.0573993 0.00102542)
(0.198236 0.0539461 0.00175651)
(0.207047 0.0487717 -0.000603008)
(0.211479 0.0457962 -0.00528344)
(0.207965 0.0501843 -0.00775605)
(0.204507 0.0611646 -0.00423276)
(0.215016 0.0653114 0.0027086)
(0.23795 0.0449243 0.00645289)
(0.244503 -8.22913e-05 0.00611598)
(0.155661 -0.0282056 -0.00252131)
(0.171449 -0.0250973 -0.000649234)
(0.262459 0.000247901 -0.0183513)
(0.25379 0.0398256 -0.020795)
(0.235841 0.0575336 -0.0144165)
(0.231532 0.0543822 -0.00458424)
(0.237685 0.0463745 0.000233046)
(0.240944 0.0439811 -0.00123979)
(0.236577 0.0468983 -0.00419735)
(0.228943 0.0511082 -0.00456615)
(0.223578 0.0538316 -0.00194239)
(0.223578 0.0538316 0.00194225)
(0.228943 0.0511082 0.00456602)
(0.236577 0.0468983 0.00419727)
(0.240944 0.0439811 0.00123974)
(0.237685 0.0463745 -0.000233045)
(0.231532 0.0543822 0.00458426)
(0.235841 0.0575336 0.0144166)
(0.25379 0.0398256 0.0207951)
(0.262459 0.000247898 0.0183513)
(0.171449 -0.0250973 0.000649224)
(0.190945 -0.0190068 -0.00385923)
(0.293177 0.00187301 -0.0297043)
(0.286123 0.0334948 -0.0345485)
(0.275449 0.0476556 -0.0261098)
(0.279865 0.0454778 -0.0144795)
(0.290381 0.0402363 -0.00889516)
(0.294346 0.0393204 -0.00895303)
(0.290391 0.0419253 -0.00963726)
(0.283795 0.0451681 -0.00766478)
(0.279269 0.0472053 -0.00293853)
(0.279269 0.0472053 0.00293835)
(0.283795 0.045168 0.00766462)
(0.290391 0.0419253 0.00963714)
(0.294346 0.0393204 0.00895299)
(0.290381 0.0402363 0.00889519)
(0.279865 0.0454778 0.0144796)
(0.275449 0.0476556 0.0261099)
(0.286123 0.0334948 0.0345485)
(0.293177 0.00187302 0.0297043)
(0.190945 -0.0190068 0.00385922)
(0.216066 -0.0105025 -0.00598549)
(0.351485 0.00436827 -0.0367552)
(0.364523 0.0261923 -0.0443343)
(0.372445 0.0365682 -0.0352078)
(0.394577 0.0357793 -0.0229794)
(0.416277 0.0331624 -0.0168609)
(0.425826 0.0335494 -0.0152783)
(0.42515 0.0360481 -0.0137648)
(0.420875 0.038683 -0.00984357)
(0.417587 0.0402473 -0.00360036)
(0.417587 0.0402473 0.00360018)
(0.420875 0.0386829 0.0098434)
(0.42515 0.036048 0.0137647)
(0.425826 0.0335493 0.0152782)
(0.416277 0.0331624 0.0168609)
(0.394577 0.0357792 0.0229795)
(0.372445 0.0365682 0.0352079)
(0.364523 0.0261924 0.0443344)
(0.351485 0.00436828 0.0367552)
(0.216066 -0.0105026 0.00598547)
(0.248311 -0.00169519 -0.00559392)
(0.459098 0.00555584 -0.0329726)
(0.545243 0.0145858 -0.040168)
(0.612937 0.017955 -0.0309535)
(0.684538 0.0153006 -0.0190207)
(0.744247 0.0121549 -0.0132264)
(0.780431 0.0115026 -0.0116491)
(0.797343 0.0125524 -0.010397)
(0.80381 0.0139063 -0.00740318)
(0.805754 0.0147441 -0.00270065)
(0.805755 0.0147441 0.00270052)
(0.803811 0.0139063 0.00740304)
(0.797344 0.0125523 0.0103968)
(0.780431 0.0115024 0.0116491)
(0.744247 0.0121548 0.0132264)
(0.684538 0.0153006 0.0190208)
(0.612937 0.0179551 0.0309536)
(0.545242 0.0145859 0.040168)
(0.459098 0.00555586 0.0329726)
(0.248311 -0.00169521 0.0055939)
(0.0844874 -0.00409598 0.00550972)
(0.146672 0.0321096 0.0290859)
(0.13514 0.0696512 0.0440787)
(0.102678 0.0812594 0.0419459)
(0.0844883 0.0700866 0.0304243)
(0.0866528 0.0531829 0.0191099)
(0.0919725 0.0459008 0.0112247)
(0.0856713 0.0512733 0.00572442)
(0.0720513 0.0617528 0.00218767)
(0.0623778 0.0691834 0.000462011)
(0.0623778 0.0691834 -0.000462015)
(0.0720513 0.0617528 -0.00218765)
(0.0856713 0.0512733 -0.00572436)
(0.0919725 0.0459008 -0.0112246)
(0.0866527 0.0531829 -0.0191098)
(0.0844882 0.0700867 -0.0304243)
(0.102678 0.0812594 -0.0419459)
(0.13514 0.0696512 -0.0440787)
(0.146672 0.0321096 -0.0290859)
(0.0844874 -0.00409598 -0.00550972)
(0.0912445 -0.00991089 0.00560898)
(0.16239 0.0245579 0.0279474)
(0.15476 0.0656625 0.0421303)
(0.121876 0.081118 0.0405076)
(0.101302 0.0715898 0.0302664)
(0.101678 0.0542128 0.0200754)
(0.106787 0.0456874 0.0126024)
(0.10101 0.0500324 0.00685097)
(0.0875266 0.059773 0.00283404)
(0.0776642 0.0667384 0.000657655)
(0.0776642 0.0667384 -0.000657675)
(0.0875266 0.059773 -0.00283403)
(0.10101 0.0500324 -0.00685093)
(0.106787 0.0456874 -0.0126024)
(0.101678 0.0542128 -0.0200754)
(0.101302 0.0715898 -0.0302664)
(0.121876 0.081118 -0.0405076)
(0.15476 0.0656625 -0.0421303)
(0.16239 0.0245579 -0.0279474)
(0.0912445 -0.0099109 -0.00560898)
(0.0984831 -0.0143669 0.00598013)
(0.177525 0.0176294 0.0263817)
(0.173225 0.0612545 0.0389698)
(0.140397 0.0800395 0.0376917)
(0.1182 0.0722544 0.0291996)
(0.117119 0.05489 0.0206758)
(0.121923 0.0455766 0.013804)
(0.116664 0.0490113 0.00776449)
(0.103562 0.0579656 0.00330067)
(0.0937203 0.0644331 0.000791057)
(0.0937203 0.0644331 -0.000791094)
(0.103562 0.0579656 -0.00330067)
(0.116664 0.0490112 -0.00776447)
(0.121923 0.0455766 -0.013804)
(0.117119 0.0548901 -0.0206758)
(0.1182 0.0722545 -0.0291996)
(0.140397 0.0800395 -0.0376917)
(0.173225 0.0612544 -0.0389698)
(0.177525 0.0176294 -0.0263817)
(0.098483 -0.0143669 -0.00598013)
(0.106599 -0.0188543 0.00635115)
(0.192133 0.0112785 0.0240835)
(0.190203 0.0569501 0.0343672)
(0.157881 0.0782916 0.0332555)
(0.135082 0.0720543 0.0269466)
(0.133174 0.0550782 0.0205751)
(0.137679 0.0455001 0.0145266)
(0.132822 0.048295 0.00827986)
(0.120222 0.0565021 0.00347423)
(0.11058 0.0624551 0.00081823)
(0.11058 0.0624551 -0.000818281)
(0.120222 0.056502 -0.00347425)
(0.132822 0.048295 -0.00827986)
(0.137679 0.0455001 -0.0145266)
(0.133174 0.0550782 -0.0205751)
(0.135082 0.0720543 -0.0269466)
(0.157881 0.0782916 -0.0332555)
(0.190203 0.05695 -0.0343673)
(0.192133 0.0112785 -0.0240835)
(0.106599 -0.0188543 -0.00635116)
(0.115968 -0.0229613 0.00656072)
(0.206161 0.00582491 0.0204272)
(0.205404 0.052879 0.0279048)
(0.174171 0.0757721 0.0270095)
(0.152043 0.0706966 0.0233344)
(0.150129 0.0544985 0.0195055)
(0.154388 0.0452693 0.01446)
(0.149797 0.0477163 0.0081728)
(0.137806 0.0551789 0.00324901)
(0.128552 0.0605758 0.00070934)
(0.128552 0.0605757 -0.000709404)
(0.137806 0.0551789 -0.00324905)
(0.149797 0.0477163 -0.00817282)
(0.154388 0.0452693 -0.01446)
(0.150129 0.0544985 -0.0195055)
(0.152043 0.0706966 -0.0233344)
(0.174171 0.0757721 -0.0270095)
(0.205404 0.052879 -0.0279048)
(0.206161 0.00582487 -0.0204272)
(0.115968 -0.0229613 -0.00656072)
(0.126936 -0.0262961 0.00630737)
(0.219637 0.00158112 0.0147012)
(0.218587 0.0490432 0.0191612)
(0.189219 0.0723576 0.0188878)
(0.169257 0.068061 0.0183523)
(0.168241 0.0531181 0.0172661)
(0.172305 0.0448792 0.0132705)
(0.167853 0.0472445 0.00716444)
(0.156621 0.0539321 0.00247984)
(0.14798 0.0587055 0.000423167)
(0.14798 0.0587054 -0.000423245)
(0.156621 0.0539321 -0.00247989)
(0.167853 0.0472445 -0.00716446)
(0.172305 0.0448792 -0.0132706)
(0.168241 0.0531182 -0.0172661)
(0.169257 0.068061 -0.0183523)
(0.189219 0.0723576 -0.0188878)
(0.218587 0.0490432 -0.0191612)
(0.219637 0.00158109 -0.0147012)
(0.126936 -0.0262961 -0.00630737)
(0.139699 -0.028248 0.00526344)
(0.232865 -0.00119924 0.00639071)
(0.230053 0.045313 0.00803339)
(0.20349 0.067857 0.00911178)
(0.187257 0.064086 0.0121159)
(0.187968 0.0509471 0.0136485)
(0.191835 0.0442731 0.0106194)
(0.187421 0.0467448 0.00500417)
(0.177132 0.0526195 0.00104693)
(0.169343 0.0567186 -7.3206e-05)
(0.169343 0.0567185 7.31095e-05)
(0.177132 0.0526195 -0.001047)
(0.187421 0.0467447 -0.00500421)
(0.191835 0.0442731 -0.0106194)
(0.187968 0.0509471 -0.0136485)
(0.187257 0.064086 -0.0121159)
(0.20349 0.067857 -0.00911178)
(0.230053 0.045313 -0.00803338)
(0.232865 -0.00119927 -0.00639071)
(0.139699 -0.0282481 -0.00526344)
(0.154314 -0.0281356 0.00320601)
(0.247013 -0.00223888 -0.00432284)
(0.241578 0.0413493 -0.00503219)
(0.218742 0.0620343 -0.00180401)
(0.207559 0.0587012 0.00475849)
(0.210625 0.0479414 0.00838238)
(0.214242 0.0432096 0.00620599)
(0.209799 0.0458257 0.00153465)
(0.200615 0.0508346 -0.001104)
(0.193862 0.0542286 -0.000793956)
(0.193862 0.0542286 0.000793837)
(0.200615 0.0508346 0.00110391)
(0.209799 0.0458256 -0.0015347)
(0.214242 0.0432096 -0.00620601)
(0.210625 0.0479414 -0.00838239)
(0.207559 0.0587012 -0.00475849)
(0.218742 0.0620342 0.00180402)
(0.241578 0.0413493 0.00503221)
(0.247013 -0.0022389 0.00432285)
(0.154314 -0.0281356 -0.00320601)
(0.170941 -0.0252182 0.000252083)
(0.266183 -0.00169433 -0.0161939)
(0.257994 0.0368297 -0.0190928)
(0.239698 0.0548083 -0.0133462)
(0.234786 0.0522199 -0.00382435)
(0.240832 0.0442728 0.00117181)
(0.244264 0.0415884 -0.000104038)
(0.239769 0.0442721 -0.00319796)
(0.231696 0.0483911 -0.00391297)
(0.22597 0.0510895 -0.00171725)
(0.22597 0.0510895 0.00171711)
(0.231696 0.0483911 0.00391285)
(0.239769 0.044272 0.00319789)
(0.244264 0.0415884 0.000104021)
(0.240832 0.0442728 -0.00117178)
(0.234786 0.0522198 0.0038244)
(0.239698 0.0548083 0.0133462)
(0.257994 0.0368297 0.0190929)
(0.266183 -0.00169434 0.0161939)
(0.170941 -0.0252182 -0.000252092)
(0.191308 -0.0194381 -0.00282728)
(0.298374 9.32392e-05 -0.0273057)
(0.291594 0.031019 -0.0325965)
(0.28032 0.0453434 -0.0248168)
(0.284456 0.0434331 -0.0134189)
(0.295323 0.038098 -0.00767675)
(0.299592 0.0369253 -0.00770326)
(0.295448 0.0393565 -0.00864425)
(0.288383 0.042532 -0.00705091)
(0.283506 0.0445523 -0.00273274)
(0.283506 0.0445522 0.00273257)
(0.288383 0.0425319 0.00705077)
(0.295448 0.0393565 0.00864416)
(0.299593 0.0369252 0.00770324)
(0.295323 0.0380979 0.00767681)
(0.284456 0.0434331 0.013419)
(0.28032 0.0453434 0.0248169)
(0.291594 0.031019 0.0325965)
(0.298375 9.32386e-05 0.0273057)
(0.191308 -0.0194381 0.00282726)
(0.21728 -0.0112697 -0.00496495)
(0.358427 0.00275584 -0.0344044)
(0.372363 0.0241577 -0.0423007)
(0.380148 0.0344933 -0.0337668)
(0.402914 0.033628 -0.0217218)
(0.425945 0.0307251 -0.0155556)
(0.436312 0.0308082 -0.0141067)
(0.435642 0.0331211 -0.0129156)
(0.43099 0.0356735 -0.00935028)
(0.427412 0.0372096 -0.00344065)
(0.427412 0.0372095 0.00344046)
(0.43099 0.0356734 0.00935012)
(0.435642 0.033121 0.0129155)
(0.436312 0.0308081 0.0141067)
(0.425945 0.030725 0.0155557)
(0.402915 0.033628 0.021722)
(0.380148 0.0344933 0.0337669)
(0.372363 0.0241577 0.0423007)
(0.358427 0.00275584 0.0344044)
(0.21728 -0.0112697 0.00496493)
(0.250173 -0.00273824 -0.00476811)
(0.467331 0.00425255 -0.0311699)
(0.555329 0.0133939 -0.0386651)
(0.624032 0.0169037 -0.0299038)
(0.697702 0.0141924 -0.0180982)
(0.759886 0.0107972 -0.0123087)
(0.797787 0.00990467 -0.0108529)
(0.815505 0.0107946 -0.00982877)
(0.822224 0.012064 -0.00707973)
(0.824198 0.0128658 -0.00259862)
(0.824199 0.0128658 0.00259848)
(0.822224 0.0120639 0.00707959)
(0.815505 0.0107944 0.00982865)
(0.797787 0.00990452 0.0108528)
(0.759886 0.0107971 0.0123088)
(0.697702 0.0141924 0.0180983)
(0.624031 0.0169037 0.0299039)
(0.555329 0.0133939 0.0386652)
(0.467331 0.00425256 0.0311699)
(0.250173 -0.00273825 0.00476809)
(0.0805474 -0.00525453 0.00524581)
(0.143898 0.0266253 0.0282036)
(0.135887 0.0617285 0.0427281)
(0.105893 0.0736947 0.0406332)
(0.0881987 0.0642918 0.0292531)
(0.0898978 0.0487948 0.0180501)
(0.0950343 0.0416806 0.0104539)
(0.0888527 0.0464537 0.00539525)
(0.0752506 0.0562834 0.00216284)
(0.0654937 0.0633259 0.000487168)
(0.0654937 0.0633259 -0.000487179)
(0.0752506 0.0562834 -0.00216282)
(0.0888527 0.0464537 -0.0053952)
(0.0950342 0.0416806 -0.0104538)
(0.0898977 0.0487949 -0.0180501)
(0.0881987 0.0642919 -0.0292531)
(0.105893 0.0736947 -0.0406333)
(0.135887 0.0617285 -0.0427281)
(0.143898 0.0266253 -0.0282036)
(0.0805473 -0.00525454 -0.00524581)
(0.0876395 -0.0104946 0.00541526)
(0.160148 0.0199651 0.0273672)
(0.155894 0.0585374 0.0412071)
(0.125226 0.0741416 0.0395536)
(0.104991 0.0662252 0.0293646)
(0.104882 0.0501834 0.0192037)
(0.10985 0.0418028 0.0119759)
(0.104213 0.0455322 0.00663363)
(0.0907118 0.0546413 0.00287791)
(0.0807199 0.0612481 0.000708889)
(0.0807199 0.0612481 -0.000708914)
(0.0907118 0.0546413 -0.0028779)
(0.104213 0.0455322 -0.0066336)
(0.10985 0.0418028 -0.0119759)
(0.104882 0.0501834 -0.0192037)
(0.104991 0.0662252 -0.0293646)
(0.125226 0.0741416 -0.0395536)
(0.155894 0.0585374 -0.0412071)
(0.160148 0.019965 -0.0273672)
(0.0876394 -0.0104947 -0.00541526)
(0.0950558 -0.0146737 0.00579181)
(0.175759 0.0136354 0.0260666)
(0.174755 0.0548165 0.0385101)
(0.143916 0.073689 0.0371738)
(0.121906 0.0673837 0.0285769)
(0.120325 0.0512387 0.0199747)
(0.125025 0.0420063 0.0133436)
(0.119914 0.0448235 0.00771833)
(0.106737 0.0531855 0.00346712)
(0.0967051 0.0593256 0.000885186)
(0.0967052 0.0593256 -0.000885226)
(0.106737 0.0531855 -0.00346714)
(0.119914 0.0448235 -0.00771833)
(0.125025 0.0420063 -0.0133436)
(0.120325 0.0512387 -0.0199747)
(0.121906 0.0673837 -0.0285769)
(0.143916 0.073689 -0.0371738)
(0.174755 0.0548164 -0.0385101)
(0.175759 0.0136353 -0.0260666)
(0.0950558 -0.0146737 -0.00579181)
(0.103329 -0.0189126 0.00620879)
(0.190855 0.00781794 0.024058)
(0.192112 0.0511447 0.0343116)
(0.161564 0.0725698 0.0331332)
(0.138792 0.0677033 0.0265945)
(0.136339 0.0517996 0.020068)
(0.140758 0.0422126 0.0142631)
(0.136069 0.0443986 0.00841585)
(0.123369 0.0520694 0.00376616)
(0.113499 0.0577375 0.000955756)
(0.113499 0.0577375 -0.000955809)
(0.123369 0.0520694 -0.00376619)
(0.136069 0.0443986 -0.00841586)
(0.140758 0.0422126 -0.0142631)
(0.136338 0.0517996 -0.0200681)
(0.138792 0.0677033 -0.0265946)
(0.161564 0.0725697 -0.0331332)
(0.192112 0.0511446 -0.0343116)
(0.190855 0.0078179 -0.024058)
(0.103329 -0.0189126 -0.00620879)
(0.112907 -0.0228326 0.00651303)
(0.205505 0.00282119 0.0207642)
(0.20769 0.04768 0.0282365)
(0.177937 0.0706936 0.0272154)
(0.155666 0.066888 0.0232175)
(0.153175 0.0515867 0.0192107)
(0.157373 0.0422473 0.0144263)
(0.152953 0.0441144 0.00849725)
(0.140839 0.0511228 0.00365263)
(0.13133 0.0562926 0.000882464)
(0.13133 0.0562925 -0.000882529)
(0.140839 0.0511228 -0.00365267)
(0.152953 0.0441144 -0.00849727)
(0.157373 0.0422473 -0.0144263)
(0.153175 0.0515867 -0.0192107)
(0.155666 0.066888 -0.0232175)
(0.177937 0.0706935 -0.0272154)
(0.20769 0.04768 -0.0282365)
(0.205505 0.00282115 -0.0207642)
(0.112907 -0.0228326 -0.00651303)
(0.124192 -0.0260565 0.00641548)
(0.219787 -0.00102606 0.0154702)
(0.221275 0.0444376 0.0198763)
(0.192997 0.0679194 0.019365)
(0.17272 0.064775 0.0184309)
(0.171137 0.0505355 0.0171978)
(0.175179 0.0420975 0.0134961)
(0.170877 0.0439347 0.00768361)
(0.159475 0.0502609 0.00298211)
(0.150553 0.054868 0.000623981)
(0.150553 0.054868 -0.000624058)
(0.159475 0.0502608 -0.00298217)
(0.170877 0.0439347 -0.00768364)
(0.175179 0.0420975 -0.0134961)
(0.171137 0.0505355 -0.0171978)
(0.17272 0.064775 -0.0184309)
(0.192997 0.0679194 -0.019365)
(0.221275 0.0444375 -0.0198763)
(0.219787 -0.0010261 -0.0154702)
(0.124192 -0.0260565 -0.00641548)
(0.137431 -0.0279843 0.00558916)
(0.234008 -0.00346052 0.00763561)
(0.233159 0.0412955 0.0091041)
(0.207233 0.0640611 0.00980268)
(0.19054 0.0612918 0.0123626)
(0.190756 0.0486527 0.0138293)
(0.194658 0.0417206 0.0111229)
(0.190344 0.0437432 0.00571003)
(0.179816 0.0493494 0.0016295)
(0.171718 0.0533348 0.000146974)
(0.171718 0.0533348 -0.000147067)
(0.179816 0.0493493 -0.00162956)
(0.190344 0.0437431 -0.00571006)
(0.194658 0.0417206 -0.0111229)
(0.190756 0.0486527 -0.0138293)
(0.19054 0.0612918 -0.0123626)
(0.207233 0.064061 -0.00980266)
(0.233159 0.0412954 -0.00910408)
(0.234008 -0.00346056 -0.0076356)
(0.137431 -0.0279843 -0.00558916)
(0.152715 -0.0279429 0.00378764)
(0.249348 -0.00425057 -0.00263015)
(0.245117 0.0379379 -0.0036546)
(0.222472 0.0588606 -0.000944941)
(0.210774 0.0563371 0.00517624)
(0.213511 0.0458679 0.00884673)
(0.217241 0.0408535 0.00698606)
(0.212819 0.043121 0.00239505)
(0.203311 0.0479496 -0.000470584)
(0.196225 0.0512734 -0.000564431)
(0.196225 0.0512734 0.000564318)
(0.203311 0.0479495 0.000470498)
(0.212819 0.0431209 -0.0023951)
(0.217241 0.0408534 -0.00698607)
(0.213511 0.0458678 -0.00884672)
(0.210774 0.0563371 -0.00517622)
(0.222472 0.0588606 0.000944974)
(0.245117 0.0379378 0.00365463)
(0.249348 -0.0042506 0.00263015)
(0.152715 -0.0279429 -0.00378764)
(0.17019 -0.0252291 0.00106089)
(0.269809 -0.00348622 -0.0141439)
(0.262293 0.0339951 -0.0174405)
(0.243772 0.0522102 -0.0123302)
(0.238426 0.0501902 -0.00319007)
(0.244459 0.0423458 0.00194477)
(0.248116 0.0394012 0.000908761)
(0.243546 0.0418513 -0.00225048)
(0.235072 0.0458672 -0.00326961)
(0.229001 0.0485311 -0.0014916)
(0.229001 0.0485311 0.00149146)
(0.235072 0.0458672 0.00326951)
(0.243546 0.0418512 0.00225043)
(0.248116 0.0394011 -0.000908758)
(0.244459 0.0423458 -0.00194472)
(0.238426 0.0501902 0.00319012)
(0.243772 0.0522102 0.0123302)
(0.262293 0.0339951 0.0174405)
(0.269809 -0.00348624 0.0141439)
(0.17019 -0.0252291 -0.0010609)
(0.191423 -0.0197685 -0.00187108)
(0.303588 -0.00154237 -0.0250083)
(0.297377 0.028718 -0.0307086)
(0.285693 0.0432382 -0.0236035)
(0.289745 0.0416434 -0.0125035)
(0.301127 0.0362558 -0.00661605)
(0.305829 0.0348611 -0.00655559)
(0.301572 0.0371444 -0.00769021)
(0.29407 0.0402713 -0.00644286)
(0.288851 0.0422822 -0.00252574)
(0.288851 0.0422822 0.00252557)
(0.29407 0.0402712 0.00644273)