/*--------------------------------*- C++ -*----------------------------------*\
  =========                 |
  \\      /  F ield         | OpenFOAM: The Open Source CFD Toolbox
   \\    /   O peration     | Website:  https://openfoam.org
    \\  /    A nd           | Version:  11
     \\/     M anipulation  |
\*---------------------------------------------------------------------------*/
FoamFile
{
    format      ascii;
    class       volScalarField;
    location    "0";
    object      p;
}
// * * * * * * * * * * * * * * * * * * * * * * * * * * * * * * * * * * * * * //

dimensions      [0 2 -2 0 0 0 0];

internalField   nonuniform List<scalar> 
75000
(
4.43695e-05
4.17968e-05
4.07456e-05
3.98186e-05
3.88639e-05
3.79134e-05
3.69841e-05
3.6071e-05
3.5168e-05
3.42725e-05
3.33836e-05
3.25003e-05
3.16219e-05
3.07478e-05
2.98773e-05
2.90101e-05
2.81459e-05
2.72844e-05
2.64253e-05
2.55684e-05
2.47135e-05
2.38605e-05
2.30092e-05
2.21596e-05
2.13114e-05
2.04646e-05
1.96192e-05
1.87749e-05
1.79318e-05
1.70899e-05
1.62489e-05
1.54089e-05
1.45699e-05
1.37317e-05
1.28944e-05
1.20579e-05
1.12221e-05
1.03871e-05
9.55277e-06
8.71912e-06
7.8861e-06
7.0537e-06
6.22189e-06
5.39066e-06
4.55996e-06
3.72984e-06
2.90009e-06
2.07103e-06
1.24252e-06
4.1278e-07
4.43672e-05
4.17969e-05
4.07458e-05
3.98187e-05
3.88639e-05
3.79135e-05
3.69841e-05
3.60711e-05
3.5168e-05
3.42726e-05
3.33836e-05
3.25003e-05
3.16219e-05
3.07478e-05
2.98773e-05
2.90101e-05
2.81459e-05
2.72844e-05
2.64253e-05
2.55684e-05
2.47135e-05
2.38605e-05
2.30092e-05
2.21596e-05
2.13114e-05
2.04646e-05
1.96192e-05
1.87749e-05
1.79319e-05
1.70899e-05
1.62489e-05
1.54089e-05
1.45699e-05
1.37317e-05
1.28944e-05
1.20579e-05
1.12221e-05
1.03871e-05
9.55278e-06
8.71912e-06
7.88611e-06
7.0537e-06
6.22189e-06
5.39066e-06
4.55996e-06
3.72984e-06
2.90009e-06
2.07104e-06
1.24252e-06
4.12782e-07
4.43645e-05
4.17971e-05
4.07461e-05
3.98188e-05
3.8864e-05
3.79135e-05
3.69842e-05
3.60711e-05
3.51681e-05
3.42726e-05
3.33836e-05
3.25003e-05
3.16219e-05
3.07478e-05
2.98773e-05
2.90102e-05
2.8146e-05
2.72844e-05
2.64253e-05
2.55684e-05
2.47135e-05
2.38605e-05
2.30093e-05
2.21596e-05
2.13114e-05
2.04646e-05
1.96192e-05
1.87749e-05
1.79319e-05
1.70899e-05
1.62489e-05
1.54089e-05
1.45699e-05
1.37317e-05
1.28944e-05
1.20579e-05
1.12221e-05
1.03871e-05
9.55278e-06
8.71912e-06
7.88611e-06
7.0537e-06
6.22189e-06
5.39067e-06
4.55996e-06
3.72984e-06
2.9001e-06
2.07104e-06
1.24253e-06
4.12784e-07
4.43614e-05
4.17975e-05
4.07464e-05
3.9819e-05
3.88641e-05
3.79136e-05
3.69842e-05
3.60711e-05
3.51681e-05
3.42726e-05
3.33836e-05
3.25004e-05
3.1622e-05
3.07478e-05
2.98773e-05
2.90102e-05
2.8146e-05
2.72844e-05
2.64253e-05
2.55684e-05
2.47135e-05
2.38605e-05
2.30093e-05
2.21596e-05
2.13114e-05
2.04646e-05
1.96192e-05
1.87749e-05
1.79319e-05
1.70899e-05
1.62489e-05
1.5409e-05
1.45699e-05
1.37317e-05
1.28944e-05
1.20579e-05
1.12221e-05
1.03871e-05
9.55278e-06
8.71913e-06
7.88611e-06
7.05371e-06
6.2219e-06
5.39067e-06
4.55997e-06
3.72985e-06
2.9001e-06
2.07104e-06
1.24253e-06
4.12787e-07
4.43578e-05
4.17981e-05
4.07465e-05
3.98192e-05
3.88641e-05
3.79136e-05
3.69843e-05
3.60712e-05
3.51681e-05
3.42726e-05
3.33837e-05
3.25004e-05
3.1622e-05
3.07478e-05
2.98774e-05
2.90102e-05
2.8146e-05
2.72844e-05
2.64253e-05
2.55684e-05
2.47136e-05
2.38605e-05
2.30093e-05
2.21596e-05
2.13114e-05
2.04647e-05
1.96192e-05
1.8775e-05
1.79319e-05
1.70899e-05
1.62489e-05
1.5409e-05
1.45699e-05
1.37318e-05
1.28944e-05
1.20579e-05
1.12221e-05
1.03871e-05
9.55279e-06
8.71913e-06
7.88612e-06
7.05371e-06
6.2219e-06
5.39068e-06
4.55997e-06
3.72985e-06
2.9001e-06
2.07105e-06
1.24253e-06
4.1279e-07
4.43536e-05
4.17994e-05
4.07465e-05
3.98194e-05
3.88642e-05
3.79137e-05
3.69843e-05
3.60712e-05
3.51682e-05
3.42727e-05
3.33837e-05
3.25004e-05
3.1622e-05
3.07478e-05
2.98774e-05
2.90102e-05
2.8146e-05
2.72845e-05
2.64253e-05
2.55684e-05
2.47136e-05
2.38606e-05
2.30093e-05
2.21596e-05
2.13114e-05
2.04647e-05
1.96192e-05
1.8775e-05
1.79319e-05
1.70899e-05
1.62489e-05
1.5409e-05
1.45699e-05
1.37318e-05
1.28944e-05
1.20579e-05
1.12222e-05
1.03871e-05
9.5528e-06
8.71914e-06
7.88612e-06
7.05372e-06
6.22191e-06
5.39068e-06
4.55998e-06
3.72986e-06
2.90011e-06
2.07105e-06
1.24254e-06
4.12794e-07
4.43483e-05
4.18018e-05
4.07461e-05
3.98197e-05
3.88644e-05
3.79137e-05
3.69844e-05
3.60713e-05
3.51682e-05
3.42727e-05
3.33837e-05
3.25004e-05
3.1622e-05
3.07479e-05
2.98774e-05
2.90102e-05
2.8146e-05
2.72845e-05
2.64254e-05
2.55685e-05
2.47136e-05
2.38606e-05
2.30093e-05
2.21596e-05
2.13115e-05
2.04647e-05
1.96192e-05
1.8775e-05
1.79319e-05
1.70899e-05
1.6249e-05
1.5409e-05
1.45699e-05
1.37318e-05
1.28944e-05
1.20579e-05
1.12222e-05
1.03871e-05
9.5528e-06
8.71915e-06
7.88613e-06
7.05372e-06
6.22191e-06
5.39069e-06
4.55998e-06
3.72986e-06
2.90011e-06
2.07106e-06
1.24254e-06
4.128e-07
4.43417e-05
4.18059e-05
4.0745e-05
3.98202e-05
3.88645e-05
3.79138e-05
3.69844e-05
3.60713e-05
3.51683e-05
3.42728e-05
3.33838e-05
3.25005e-05
3.16221e-05
3.07479e-05
2.98774e-05
2.90102e-05
2.8146e-05
2.72845e-05
2.64254e-05
2.55685e-05
2.47136e-05
2.38606e-05
2.30093e-05
2.21596e-05
2.13115e-05
2.04647e-05
1.96192e-05
1.8775e-05
1.79319e-05
1.70899e-05
1.6249e-05
1.5409e-05
1.45699e-05
1.37318e-05
1.28945e-05
1.20579e-05
1.12222e-05
1.03871e-05
9.55281e-06
8.71915e-06
7.88614e-06
7.05373e-06
6.22192e-06
5.39069e-06
4.55999e-06
3.72987e-06
2.90012e-06
2.07106e-06
1.24255e-06
4.12808e-07
4.43329e-05
4.18128e-05
4.0743e-05
3.98208e-05
3.88648e-05
3.79138e-05
3.69845e-05
3.60714e-05
3.51683e-05
3.42728e-05
3.33838e-05
3.25005e-05
3.16221e-05
3.07479e-05
2.98774e-05
2.90103e-05
2.81461e-05
2.72845e-05
2.64254e-05
2.55685e-05
2.47136e-05
2.38606e-05
2.30093e-05
2.21597e-05
2.13115e-05
2.04647e-05
1.96192e-05
1.8775e-05
1.79319e-05
1.70899e-05
1.6249e-05
1.5409e-05
1.457e-05
1.37318e-05
1.28945e-05
1.20579e-05
1.12222e-05
1.03871e-05
9.55282e-06
8.71916e-06
7.88615e-06
7.05374e-06
6.22193e-06
5.3907e-06
4.55999e-06
3.72987e-06
2.90013e-06
2.07107e-06
1.24255e-06
4.12819e-07
4.4321e-05
4.18237e-05
4.07396e-05
3.98217e-05
3.88653e-05
3.79139e-05
3.69845e-05
3.60715e-05
3.51684e-05
3.42729e-05
3.33838e-05
3.25005e-05
3.16221e-05
3.0748e-05
2.98775e-05
2.90103e-05
2.81461e-05
2.72845e-05
2.64254e-05
2.55685e-05
2.47136e-05
2.38606e-05
2.30093e-05
2.21597e-05
2.13115e-05
2.04647e-05
1.96192e-05
1.8775e-05
1.79319e-05
1.70899e-05
1.6249e-05
1.5409e-05
1.457e-05
1.37318e-05
1.28945e-05
1.20579e-05
1.12222e-05
1.03872e-05
9.55283e-06
8.71917e-06
7.88615e-06
7.05375e-06
6.22193e-06
5.39071e-06
4.56e-06
3.72988e-06
2.90013e-06
2.07108e-06
1.24255e-06
4.12837e-07
4.43045e-05
4.18403e-05
4.07342e-05
3.98229e-05
3.88662e-05
3.7914e-05
3.69846e-05
3.60715e-05
3.51685e-05
3.42729e-05
3.33839e-05
3.25006e-05
3.16222e-05
3.0748e-05
2.98775e-05
2.90103e-05
2.81461e-05
2.72846e-05
2.64254e-05
2.55685e-05
2.47137e-05
2.38606e-05
2.30094e-05
2.21597e-05
2.13115e-05
2.04647e-05
1.96193e-05
1.8775e-05
1.79319e-05
1.709e-05
1.6249e-05
1.5409e-05
1.457e-05
1.37318e-05
1.28945e-05
1.2058e-05
1.12222e-05
1.03872e-05
9.55284e-06
8.71918e-06
7.88616e-06
7.05376e-06
6.22194e-06
5.39072e-06
4.56001e-06
3.72989e-06
2.90014e-06
2.07109e-06
1.24254e-06
4.12868e-07
4.42819e-05
4.18641e-05
4.07266e-05
3.98242e-05
3.88678e-05
3.79142e-05
3.69846e-05
3.60717e-05
3.51686e-05
3.4273e-05
3.3384e-05
3.25007e-05
3.16222e-05
3.0748e-05
2.98776e-05
2.90104e-05
2.81462e-05
2.72846e-05
2.64255e-05
2.55686e-05
2.47137e-05
2.38607e-05
2.30094e-05
2.21597e-05
2.13115e-05
2.04648e-05
1.96193e-05
1.8775e-05
1.7932e-05
1.709e-05
1.6249e-05
1.5409e-05
1.457e-05
1.37318e-05
1.28945e-05
1.2058e-05
1.12222e-05
1.03872e-05
9.55285e-06
8.71919e-06
7.88617e-06
7.05377e-06
6.22195e-06
5.39073e-06
4.56002e-06
3.7299e-06
2.90015e-06
2.0711e-06
1.24252e-06
4.1292e-07
4.42512e-05
4.18965e-05
4.07167e-05
3.98251e-05
3.88704e-05
3.79146e-05
3.69846e-05
3.60718e-05
3.51688e-05
3.42732e-05
3.33841e-05
3.25007e-05
3.16223e-05
3.07481e-05
2.98776e-05
2.90104e-05
2.81462e-05
2.72846e-05
2.64255e-05
2.55686e-05
2.47137e-05
2.38607e-05
2.30094e-05
2.21597e-05
2.13116e-05
2.04648e-05
1.96193e-05
1.87751e-05
1.7932e-05
1.709e-05
1.6249e-05
1.54091e-05
1.457e-05
1.37318e-05
1.28945e-05
1.2058e-05
1.12222e-05
1.03872e-05
9.55286e-06
8.7192e-06
7.88619e-06
7.05378e-06
6.22196e-06
5.39073e-06
4.56003e-06
3.72991e-06
2.90015e-06
2.07112e-06
1.24247e-06
4.13013e-07
4.42106e-05
4.19383e-05
4.07055e-05
3.98249e-05
3.88744e-05
3.79155e-05
3.69846e-05
3.60721e-05
3.51691e-05
3.42734e-05
3.33843e-05
3.25009e-05
3.16224e-05
3.07482e-05
2.98777e-05
2.90105e-05
2.81463e-05
2.72847e-05
2.64256e-05
2.55687e-05
2.47138e-05
2.38607e-05
2.30095e-05
2.21598e-05
2.13116e-05
2.04648e-05
1.96193e-05
1.87751e-05
1.7932e-05
1.709e-05
1.62491e-05
1.54091e-05
1.457e-05
1.37319e-05
1.28945e-05
1.2058e-05
1.12222e-05
1.03872e-05
9.55288e-06
8.71922e-06
7.8862e-06
7.05379e-06
6.22198e-06
5.39075e-06
4.56004e-06
3.72992e-06
2.90016e-06
2.07113e-06
1.24238e-06
4.13174e-07
4.41584e-05
4.19892e-05
4.06947e-05
3.98225e-05
3.88798e-05
3.79172e-05
3.69847e-05
3.60724e-05
3.51696e-05
3.42738e-05
3.33845e-05
3.25011e-05
3.16226e-05
3.07484e-05
2.98779e-05
2.90106e-05
2.81464e-05
2.72848e-05
2.64257e-05
2.55687e-05
2.47138e-05
2.38608e-05
2.30095e-05
2.21598e-05
2.13117e-05
2.04649e-05
1.96194e-05
1.87751e-05
1.7932e-05
1.70901e-05
1.62491e-05
1.54091e-05
1.45701e-05
1.37319e-05
1.28946e-05
1.2058e-05
1.12223e-05
1.03872e-05
9.5529e-06
8.71924e-06
7.88622e-06
7.05382e-06
6.222e-06
5.39076e-06
4.56006e-06
3.72994e-06
2.90017e-06
2.07115e-06
1.24222e-06
4.13455e-07
4.40935e-05
4.20472e-05
4.06873e-05
3.98169e-05
3.88865e-05
3.79203e-05
3.69849e-05
3.60729e-05
3.51703e-05
3.42743e-05
3.33849e-05
3.25014e-05
3.16229e-05
3.07486e-05
2.98781e-05
2.90108e-05
2.81466e-05
2.7285e-05
2.64258e-05
2.55689e-05
2.4714e-05
2.38609e-05
2.30096e-05
2.21599e-05
2.13117e-05
2.04649e-05
1.96195e-05
1.87752e-05
1.79321e-05
1.70901e-05
1.62491e-05
1.54092e-05
1.45701e-05
1.37319e-05
1.28946e-05
1.20581e-05
1.12223e-05
1.03873e-05
9.55294e-06
8.71927e-06
7.88625e-06
7.05385e-06
6.22203e-06
5.39079e-06
4.56009e-06
3.72997e-06
2.90019e-06
2.07118e-06
1.24195e-06
4.13921e-07
4.40153e-05
4.2109e-05
4.06866e-05
3.98076e-05
3.88939e-05
3.79253e-05
3.69855e-05
3.60733e-05
3.51713e-05
3.42752e-05
3.33855e-05
3.25019e-05
3.16234e-05
3.0749e-05
2.98784e-05
2.90111e-05
2.81468e-05
2.72852e-05
2.6426e-05
2.55691e-05
2.47142e-05
2.38611e-05
2.30098e-05
2.21601e-05
2.13119e-05
2.04651e-05
1.96196e-05
1.87753e-05
1.79322e-05
1.70902e-05
1.62492e-05
1.54093e-05
1.45702e-05
1.3732e-05
1.28947e-05
1.20582e-05
1.12224e-05
1.03873e-05
9.55301e-06
8.71934e-06
7.88631e-06
7.05391e-06
6.22209e-06
5.39084e-06
4.56013e-06
3.73002e-06
2.90022e-06
2.07121e-06
1.24154e-06
4.1465e-07
4.39246e-05
4.21694e-05
4.06959e-05
3.97951e-05
3.89006e-05
3.79326e-05
3.69868e-05
3.60738e-05
3.51725e-05
3.42763e-05
3.33863e-05
3.25025e-05
3.16239e-05
3.07495e-05
2.98788e-05
2.90115e-05
2.81472e-05
2.72855e-05
2.64263e-05
2.55693e-05
2.47144e-05
2.38613e-05
2.301e-05
2.21603e-05
2.1312e-05
2.04652e-05
1.96197e-05
1.87755e-05
1.79323e-05
1.70903e-05
1.62494e-05
1.54094e-05
1.45703e-05
1.37321e-05
1.28948e-05
1.20582e-05
1.12225e-05
1.03874e-05
9.55308e-06
8.71941e-06
7.88638e-06
7.05397e-06
6.22215e-06
5.39089e-06
4.56018e-06
3.73008e-06
2.90024e-06
2.07121e-06
1.24095e-06
4.15631e-07
4.38239e-05
4.22221e-05
4.07168e-05
3.97816e-05
3.89056e-05
3.79425e-05
3.69898e-05
3.60745e-05
3.5174e-05
3.4278e-05
3.33875e-05
3.25035e-05
3.16247e-05
3.07503e-05
2.98795e-05
2.90121e-05
2.81477e-05
2.7286e-05
2.64268e-05
2.55698e-05
2.47148e-05
2.38617e-05
2.30103e-05
2.21606e-05
2.13124e-05
2.04655e-05
1.962e-05
1.87757e-05
1.79326e-05
1.70906e-05
1.62496e-05
1.54096e-05
1.45705e-05
1.37323e-05
1.2895e-05
1.20584e-05
1.12226e-05
1.03876e-05
9.55324e-06
8.71956e-06
7.88653e-06
7.05412e-06
6.22229e-06
5.39102e-06
4.56031e-06
3.7302e-06
2.90033e-06
2.07125e-06
1.24034e-06
4.16771e-07
4.37188e-05
4.2261e-05
4.07478e-05
3.97697e-05
3.89073e-05
3.79541e-05
3.69948e-05
3.60754e-05
3.51755e-05
3.42799e-05
3.3389e-05
3.25045e-05
3.16256e-05
3.07511e-05
2.98802e-05
2.90127e-05
2.81483e-05
2.72865e-05
2.64272e-05
2.55702e-05
2.47151e-05
2.3862e-05
2.30106e-05
2.21609e-05
2.13126e-05
2.04658e-05
1.96202e-05
1.87759e-05
1.79328e-05
1.70908e-05
1.62498e-05
1.54097e-05
1.45707e-05
1.37325e-05
1.28951e-05
1.20586e-05
1.12228e-05
1.03877e-05
9.55336e-06
8.71968e-06
7.88664e-06
7.05422e-06
6.22239e-06
5.39112e-06
4.5604e-06
3.73028e-06
2.90037e-06
2.07123e-06
1.23987e-06
4.17541e-07
4.43702e-05
4.17989e-05
4.07454e-05
3.98191e-05
3.88643e-05
3.79138e-05
3.69845e-05
3.60714e-05
3.51683e-05
3.42728e-05
3.33838e-05
3.25005e-05
3.16221e-05
3.07479e-05
2.98775e-05
2.90103e-05
2.81461e-05
2.72846e-05
2.64254e-05
2.55685e-05
2.47136e-05
2.38606e-05
2.30094e-05
2.21597e-05
2.13115e-05
2.04647e-05
1.96193e-05
1.8775e-05
1.79319e-05
1.709e-05
1.6249e-05
1.5409e-05
1.457e-05
1.37318e-05
1.28945e-05
1.2058e-05
1.12222e-05
1.03872e-05
9.55284e-06
8.71918e-06
7.88616e-06
7.05375e-06
6.22194e-06
5.39072e-06
4.56001e-06
3.72988e-06
2.90017e-06
2.07101e-06
1.24284e-06
4.12534e-07
4.43678e-05
4.1799e-05
4.07457e-05
3.98192e-05
3.88644e-05
3.79139e-05
3.69845e-05
3.60714e-05
3.51683e-05
3.42728e-05
3.33838e-05
3.25005e-05
3.16221e-05
3.0748e-05
2.98775e-05
2.90103e-05
2.81461e-05
2.72846e-05
2.64254e-05
2.55685e-05
2.47137e-05
2.38606e-05
2.30094e-05
2.21597e-05
2.13115e-05
2.04647e-05
1.96193e-05
1.8775e-05
1.79319e-05
1.709e-05
1.6249e-05
1.5409e-05
1.457e-05
1.37318e-05
1.28945e-05
1.2058e-05
1.12222e-05
1.03872e-05
9.55284e-06
8.71918e-06
7.88617e-06
7.05376e-06
6.22194e-06
5.39072e-06
4.56002e-06
3.72988e-06
2.90017e-06
2.07101e-06
1.24284e-06
4.12536e-07
4.43648e-05
4.17992e-05
4.0746e-05
3.98194e-05
3.88644e-05
3.79139e-05
3.69846e-05
3.60714e-05
3.51684e-05
3.42728e-05
3.33839e-05
3.25006e-05
3.16222e-05
3.0748e-05
2.98775e-05
2.90103e-05
2.81461e-05
2.72846e-05
2.64255e-05
2.55685e-05
2.47137e-05
2.38607e-05
2.30094e-05
2.21597e-05
2.13115e-05
2.04647e-05
1.96193e-05
1.8775e-05
1.7932e-05
1.709e-05
1.6249e-05
1.5409e-05
1.457e-05
1.37318e-05
1.28945e-05
1.2058e-05
1.12222e-05
1.03872e-05
9.55284e-06
8.71919e-06
7.88617e-06
7.05376e-06
6.22195e-06
5.39072e-06
4.56002e-06
3.72989e-06
2.90017e-06
2.07102e-06
1.24284e-06
4.12539e-07
4.43615e-05
4.17996e-05
4.07463e-05
3.98196e-05
3.88645e-05
3.79139e-05
3.69846e-05
3.60715e-05
3.51684e-05
3.42729e-05
3.33839e-05
3.25006e-05
3.16222e-05
3.0748e-05
2.98775e-05
2.90103e-05
2.81461e-05
2.72846e-05
2.64255e-05
2.55686e-05
2.47137e-05
2.38607e-05
2.30094e-05
2.21597e-05
2.13115e-05
2.04647e-05
1.96193e-05
1.8775e-05
1.7932e-05
1.709e-05
1.6249e-05
1.5409e-05
1.457e-05
1.37318e-05
1.28945e-05
1.2058e-05
1.12222e-05
1.03872e-05
9.55285e-06
8.71919e-06
7.88617e-06
7.05376e-06
6.22195e-06
5.39073e-06
4.56002e-06
3.72989e-06
2.90018e-06
2.07102e-06
1.24285e-06
4.12542e-07
4.43576e-05
4.18004e-05
4.07464e-05
3.98198e-05
3.88646e-05
3.7914e-05
3.69846e-05
3.60715e-05
3.51684e-05
3.42729e-05
3.33839e-05
3.25006e-05
3.16222e-05
3.0748e-05
2.98775e-05
2.90104e-05
2.81461e-05
2.72846e-05
2.64255e-05
2.55686e-05
2.47137e-05
2.38607e-05
2.30094e-05
2.21597e-05
2.13115e-05
2.04648e-05
1.96193e-05
1.8775e-05
1.7932e-05
1.709e-05
1.6249e-05
1.5409e-05
1.457e-05
1.37318e-05
1.28945e-05
1.2058e-05
1.12222e-05
1.03872e-05
9.55285e-06
8.71919e-06
7.88618e-06
7.05377e-06
6.22196e-06
5.39073e-06
4.56003e-06
3.72989e-06
2.90018e-06
2.07102e-06
1.24285e-06
4.12545e-07
4.4353e-05
4.1802e-05
4.07462e-05
3.982e-05
3.88647e-05
3.79141e-05
3.69847e-05
3.60715e-05
3.51685e-05
3.42729e-05
3.33839e-05
3.25006e-05
3.16222e-05
3.0748e-05
2.98776e-05
2.90104e-05
2.81462e-05
2.72846e-05
2.64255e-05
2.55686e-05
2.47137e-05
2.38607e-05
2.30094e-05
2.21597e-05
2.13115e-05
2.04648e-05
1.96193e-05
1.87751e-05
1.7932e-05
1.709e-05
1.6249e-05
1.5409e-05
1.457e-05
1.37318e-05
1.28945e-05
1.2058e-05
1.12222e-05
1.03872e-05
9.55286e-06
8.7192e-06
7.88618e-06
7.05377e-06
6.22196e-06
5.39074e-06
4.56003e-06
3.7299e-06
2.90019e-06
2.07103e-06
1.24286e-06
4.1255e-07
4.43473e-05
4.18048e-05
4.07457e-05
3.98204e-05
3.88648e-05
3.79141e-05
3.69848e-05
3.60716e-05
3.51685e-05
3.4273e-05
3.3384e-05
3.25007e-05
3.16223e-05
3.07481e-05
2.98776e-05
2.90104e-05
2.81462e-05
2.72846e-05
2.64255e-05
2.55686e-05
2.47137e-05
2.38607e-05
2.30094e-05
2.21597e-05
2.13116e-05
2.04648e-05
1.96193e-05
1.87751e-05
1.7932e-05
1.709e-05
1.6249e-05
1.54091e-05
1.457e-05
1.37318e-05
1.28945e-05
1.2058e-05
1.12222e-05
1.03872e-05
9.55287e-06
8.71921e-06
7.88619e-06
7.05378e-06
6.22197e-06
5.39074e-06
4.56004e-06
3.7299e-06
2.90019e-06
2.07103e-06
1.24286e-06
4.12555e-07
4.434e-05
4.18098e-05
4.07444e-05
3.98209e-05
3.8865e-05
3.79142e-05
3.69848e-05
3.60717e-05
3.51686e-05
3.4273e-05
3.3384e-05
3.25007e-05
3.16223e-05
3.07481e-05
2.98776e-05
2.90104e-05
2.81462e-05
2.72847e-05
2.64255e-05
2.55686e-05
2.47137e-05
2.38607e-05
2.30094e-05
2.21598e-05
2.13116e-05
2.04648e-05
1.96193e-05
1.87751e-05
1.7932e-05
1.709e-05
1.6249e-05
1.54091e-05
1.457e-05
1.37319e-05
1.28945e-05
1.2058e-05
1.12222e-05
1.03872e-05
9.55287e-06
8.71921e-06
7.8862e-06
7.05379e-06
6.22197e-06
5.39075e-06
4.56004e-06
3.72991e-06
2.9002e-06
2.07104e-06
1.24286e-06
4.12562e-07
4.43302e-05
4.18179e-05
4.07419e-05
3.98216e-05
3.88654e-05
3.79142e-05
3.69849e-05
3.60717e-05
3.51686e-05
3.42731e-05
3.33841e-05
3.25007e-05
3.16223e-05
3.07481e-05
2.98776e-05
2.90104e-05
2.81462e-05
2.72847e-05
2.64255e-05
2.55686e-05
2.47137e-05
2.38607e-05
2.30094e-05
2.21598e-05
2.13116e-05
2.04648e-05
1.96193e-05
1.87751e-05
1.7932e-05
1.709e-05
1.62491e-05
1.54091e-05
1.457e-05
1.37319e-05
1.28945e-05
1.2058e-05
1.12222e-05
1.03872e-05
9.55288e-06
8.71922e-06
7.8862e-06
7.05379e-06
6.22198e-06
5.39075e-06
4.56005e-06
3.72992e-06
2.9002e-06
2.07105e-06
1.24287e-06
4.12571e-07
4.43168e-05
4.18307e-05
4.07379e-05
3.98226e-05
3.8866e-05
3.79143e-05
3.69849e-05
3.60718e-05
3.51687e-05
3.42731e-05
3.33841e-05
3.25008e-05
3.16224e-05
3.07482e-05
2.98777e-05
2.90105e-05
2.81463e-05
2.72847e-05
2.64256e-05
2.55687e-05
2.47138e-05
2.38607e-05
2.30095e-05
2.21598e-05
2.13116e-05
2.04648e-05
1.96193e-05
1.87751e-05
1.7932e-05
1.709e-05
1.62491e-05
1.54091e-05
1.457e-05
1.37319e-05
1.28945e-05
1.2058e-05
1.12223e-05
1.03872e-05
9.55289e-06
8.71923e-06
7.88621e-06
7.0538e-06
6.22199e-06
5.39076e-06
4.56006e-06
3.72992e-06
2.90021e-06
2.07106e-06
1.24287e-06
4.12585e-07
4.42982e-05
4.18497e-05
4.07318e-05
3.98238e-05
3.88671e-05
3.79145e-05
3.69849e-05
3.60719e-05
3.51688e-05
3.42732e-05
3.33842e-05
3.25008e-05
3.16224e-05
3.07482e-05
2.98777e-05
2.90105e-05
2.81463e-05
2.72847e-05
2.64256e-05
2.55687e-05
2.47138e-05
2.38608e-05
2.30095e-05
2.21598e-05
2.13116e-05
2.04648e-05
1.96194e-05
1.87751e-05
1.7932e-05
1.709e-05
1.62491e-05
1.54091e-05
1.45701e-05
1.37319e-05
1.28946e-05
1.2058e-05
1.12223e-05
1.03872e-05
9.5529e-06
8.71924e-06
7.88622e-06
7.05381e-06
6.222e-06
5.39077e-06
4.56007e-06
3.72993e-06
2.90021e-06
2.07107e-06
1.24286e-06
4.12608e-07
4.42729e-05
4.18765e-05
4.07234e-05
3.9825e-05
3.8869e-05
3.79147e-05
3.6985e-05
3.6072e-05
3.5169e-05
3.42733e-05
3.33842e-05
3.25009e-05
3.16225e-05
3.07483e-05
2.98778e-05
2.90106e-05
2.81463e-05
2.72848e-05
2.64256e-05
2.55687e-05
2.47138e-05
2.38608e-05
2.30095e-05
2.21598e-05
2.13116e-05
2.04649e-05
1.96194e-05
1.87751e-05
1.79321e-05
1.70901e-05
1.62491e-05
1.54091e-05
1.45701e-05
1.37319e-05
1.28946e-05
1.2058e-05
1.12223e-05
1.03872e-05
9.55291e-06
8.71925e-06
7.88623e-06
7.05382e-06
6.22201e-06
5.39078e-06
4.56008e-06
3.72994e-06
2.90022e-06
2.07108e-06
1.24285e-06
4.12649e-07
4.42389e-05
4.19121e-05
4.07131e-05
3.98256e-05
3.88721e-05
3.79153e-05
3.6985e-05
3.60723e-05
3.51692e-05
3.42735e-05
3.33844e-05
3.2501e-05
3.16226e-05
3.07483e-05
2.98778e-05
2.90106e-05
2.81464e-05
2.72848e-05
2.64257e-05
2.55688e-05
2.47139e-05
2.38608e-05
2.30095e-05
2.21599e-05
2.13117e-05
2.04649e-05
1.96194e-05
1.87752e-05
1.79321e-05
1.70901e-05
1.62491e-05
1.54091e-05
1.45701e-05
1.37319e-05
1.28946e-05
1.20581e-05
1.12223e-05
1.03873e-05
9.55293e-06
8.71926e-06
7.88625e-06
7.05384e-06
6.22202e-06
5.39079e-06
4.56009e-06
3.72995e-06
2.90023e-06
2.0711e-06
1.24281e-06
4.12724e-07
4.41946e-05
4.19568e-05
4.07021e-05
3.98247e-05
3.88766e-05
3.79165e-05
3.69851e-05
3.60726e-05
3.51696e-05
3.42738e-05
3.33846e-05
3.25012e-05
3.16227e-05
3.07485e-05
2.98779e-05
2.90107e-05
2.81465e-05
2.72849e-05
2.64258e-05
2.55688e-05
2.47139e-05
2.38609e-05
2.30096e-05
2.21599e-05
2.13117e-05
2.04649e-05
1.96194e-05
1.87752e-05
1.79321e-05
1.70901e-05
1.62491e-05
1.54092e-05
1.45701e-05
1.37319e-05
1.28946e-05
1.20581e-05
1.12223e-05
1.03873e-05
9.55295e-06
8.71928e-06
7.88626e-06
7.05385e-06
6.22204e-06
5.3908e-06
4.5601e-06
3.72997e-06
2.90023e-06
2.07113e-06
1.24274e-06
4.12861e-07
4.41384e-05
4.20096e-05
4.06927e-05
3.98213e-05
3.88825e-05
3.79188e-05
3.69853e-05
3.6073e-05
3.51702e-05
3.42743e-05
3.33849e-05
3.25015e-05
3.1623e-05
3.07487e-05
2.98781e-05
2.90109e-05
2.81466e-05
2.7285e-05
2.64259e-05
2.55689e-05
2.4714e-05
2.3861e-05
2.30097e-05
2.216e-05
2.13118e-05
2.0465e-05
1.96195e-05
1.87753e-05
1.79322e-05
1.70902e-05
1.62492e-05
1.54092e-05
1.45702e-05
1.3732e-05
1.28946e-05
1.20581e-05
1.12224e-05
1.03873e-05
9.55298e-06
8.71931e-06
7.88629e-06
7.05388e-06
6.22206e-06
5.39083e-06
4.56013e-06
3.72999e-06
2.90025e-06
2.07115e-06
1.24261e-06
4.13111e-07
4.40694e-05
4.20681e-05
4.06877e-05
3.98146e-05
3.88894e-05
3.79226e-05
3.69858e-05
3.60735e-05
3.5171e-05
3.4275e-05
3.33854e-05
3.25019e-05
3.16233e-05
3.0749e-05
2.98784e-05
2.90111e-05
2.81468e-05
2.72852e-05
2.6426e-05
2.55691e-05
2.47142e-05
2.38611e-05
2.30098e-05
2.21601e-05
2.13119e-05
2.04651e-05
1.96196e-05
1.87753e-05
1.79322e-05
1.70902e-05
1.62493e-05
1.54093e-05
1.45702e-05
1.3732e-05
1.28947e-05
1.20582e-05
1.12224e-05
1.03874e-05
9.55302e-06
8.71936e-06
7.88633e-06
7.05392e-06
6.2221e-06
5.39086e-06
4.56016e-06
3.73003e-06
2.90026e-06
2.07118e-06
1.24236e-06
4.13539e-07
4.39876e-05
4.21282e-05
4.06905e-05
3.98046e-05
3.88966e-05
3.79285e-05
3.69869e-05
3.60742e-05
3.51722e-05
3.4276e-05
3.33862e-05
3.25025e-05
3.16239e-05
3.07495e-05
2.98788e-05
2.90115e-05
2.81472e-05
2.72855e-05
2.64263e-05
2.55693e-05
2.47144e-05
2.38613e-05
2.301e-05
2.21603e-05
2.13121e-05
2.04653e-05
1.96198e-05
1.87755e-05
1.79324e-05
1.70904e-05
1.62494e-05
1.54094e-05
1.45703e-05
1.37321e-05
1.28948e-05
1.20583e-05
1.12225e-05
1.03874e-05
9.5531e-06
8.71943e-06
7.88641e-06
7.05399e-06
6.22217e-06
5.39092e-06
4.56022e-06
3.73009e-06
2.90029e-06
2.07122e-06
1.24199e-06
4.1422e-07
4.38943e-05
4.21842e-05
4.07036e-05
3.97921e-05
3.89028e-05
3.79367e-05
3.6989e-05
3.60749e-05
3.51736e-05
3.42773e-05
3.33872e-05
3.25032e-05
3.16245e-05
3.07501e-05
2.98794e-05
2.9012e-05
2.81476e-05
2.72859e-05
2.64267e-05
2.55696e-05
2.47147e-05
2.38616e-05
2.30102e-05
2.21605e-05
2.13123e-05
2.04654e-05
1.96199e-05
1.87756e-05
1.79325e-05
1.70905e-05
1.62495e-05
1.54095e-05
1.45704e-05
1.37323e-05
1.28949e-05
1.20584e-05
1.12226e-05
1.03875e-05
9.55319e-06
8.71951e-06
7.88649e-06
7.05407e-06
6.22224e-06
5.39099e-06
4.56029e-06
3.73016e-06
2.90032e-06
2.07123e-06
1.24147e-06
4.15125e-07
4.37921e-05
4.22303e-05
4.07276e-05
3.97795e-05
3.89069e-05
3.79474e-05
3.69931e-05
3.60762e-05
3.51755e-05
3.42794e-05
3.33888e-05
3.25045e-05
3.16256e-05
3.07511e-05
2.98802e-05
2.90128e-05
2.81483e-05
2.72866e-05
2.64273e-05
2.55702e-05
2.47152e-05
2.38621e-05
2.30107e-05
2.21609e-05
2.13127e-05
2.04658e-05
1.96203e-05
1.8776e-05
1.79328e-05
1.70908e-05
1.62498e-05
1.54098e-05
1.45707e-05
1.37325e-05
1.28951e-05
1.20586e-05
1.12228e-05
1.03877e-05
9.55339e-06
8.71971e-06
7.88667e-06
7.05425e-06
6.22241e-06
5.39114e-06
4.56045e-06
3.73031e-06
2.90041e-06
2.07129e-06
1.24096e-06
4.16189e-07
4.36861e-05
4.22614e-05
4.076e-05
3.97693e-05
3.89074e-05
3.7959e-05
3.6999e-05
3.60776e-05
3.51772e-05
3.42816e-05
3.33905e-05
3.25057e-05
3.16266e-05
3.0752e-05
2.98811e-05
2.90135e-05
2.81489e-05
2.72871e-05
2.64278e-05
2.55707e-05
2.47156e-05
2.38624e-05
2.3011e-05
2.21612e-05
2.1313e-05
2.04661e-05
1.96205e-05
1.87762e-05
1.79331e-05
1.7091e-05
1.625e-05
1.541e-05
1.45709e-05
1.37327e-05
1.28953e-05
1.20587e-05
1.12229e-05
1.03879e-05
9.55352e-06
8.71983e-06
7.88679e-06
7.05437e-06
6.22252e-06
5.39124e-06
4.56054e-06
3.73039e-06
2.90045e-06
2.07125e-06
1.24054e-06
4.16895e-07
4.43712e-05
4.18016e-05
4.07445e-05
3.98195e-05
3.88646e-05
3.7914e-05
3.69846e-05
3.60715e-05
3.51684e-05
3.42729e-05
3.33839e-05
3.25006e-05
3.16222e-05
3.0748e-05
2.98775e-05
2.90103e-05
2.81461e-05
2.72846e-05
2.64255e-05
2.55686e-05
2.47137e-05
2.38607e-05
2.30094e-05
2.21597e-05
2.13115e-05
2.04648e-05
1.96193e-05
1.8775e-05
1.7932e-05
1.709e-05
1.6249e-05
1.5409e-05
1.457e-05
1.37318e-05
1.28945e-05
1.2058e-05
1.12222e-05
1.03872e-05
9.55286e-06
8.7192e-06
7.88618e-06
7.05378e-06
6.22196e-06
5.39074e-06
4.56004e-06
3.72989e-06
2.90022e-06
2.07096e-06
1.24312e-06
4.12279e-07
4.43687e-05
4.18018e-05
4.07448e-05
3.98196e-05
3.88647e-05
3.7914e-05
3.69846e-05
3.60715e-05
3.51684e-05
3.42729e-05
3.33839e-05
3.25006e-05
3.16222e-05
3.0748e-05
2.98775e-05
2.90104e-05
2.81461e-05
2.72846e-05
2.64255e-05
2.55686e-05
2.47137e-05
2.38607e-05
2.30094e-05
2.21597e-05
2.13115e-05
2.04648e-05
1.96193e-05
1.87751e-05
1.7932e-05
1.709e-05
1.6249e-05
1.5409e-05
1.457e-05
1.37318e-05
1.28945e-05
1.2058e-05
1.12222e-05
1.03872e-05
9.55286e-06
8.7192e-06
7.88619e-06
7.05378e-06
6.22196e-06
5.39074e-06
4.56004e-06
3.7299e-06
2.90022e-06
2.07097e-06
1.24312e-06
4.12281e-07
4.43655e-05
4.1802e-05
4.07452e-05
3.98197e-05
3.88647e-05
3.7914e-05
3.69847e-05
3.60715e-05
3.51684e-05
3.42729e-05
3.33839e-05
3.25006e-05
3.16222e-05
3.0748e-05
2.98775e-05
2.90104e-05
2.81462e-05
2.72846e-05
2.64255e-05
2.55686e-05
2.47137e-05
2.38607e-05
2.30094e-05
2.21597e-05
2.13115e-05
2.04648e-05
1.96193e-05
1.87751e-05
1.7932e-05
1.709e-05
1.6249e-05
1.54091e-05
1.457e-05
1.37318e-05
1.28945e-05
1.2058e-05
1.12222e-05
1.03872e-05
9.55287e-06
8.71921e-06
7.88619e-06
7.05378e-06
6.22197e-06
5.39074e-06
4.56004e-06
3.7299e-06
2.90023e-06
2.07097e-06
1.24312e-06
4.12284e-07
4.4362e-05
4.18025e-05
4.07454e-05
3.98199e-05
3.88648e-05
3.79141e-05
3.69847e-05
3.60716e-05
3.51685e-05
3.42729e-05
3.33839e-05
3.25006e-05
3.16222e-05
3.0748e-05
2.98776e-05
2.90104e-05
2.81462e-05
2.72846e-05
2.64255e-05
2.55686e-05
2.47137e-05
2.38607e-05
2.30094e-05
2.21597e-05
2.13116e-05
2.04648e-05
1.96193e-05
1.87751e-05
1.7932e-05
1.709e-05
1.6249e-05
1.54091e-05
1.457e-05
1.37318e-05
1.28945e-05
1.2058e-05
1.12222e-05
1.03872e-05
9.55287e-06
8.71921e-06
7.8862e-06
7.05379e-06
6.22197e-06
5.39075e-06
4.56005e-06
3.7299e-06
2.90023e-06
2.07097e-06
1.24312e-06
4.12288e-07
4.43579e-05
4.18034e-05
4.07455e-05
3.98201e-05
3.88649e-05
3.79142e-05
3.69848e-05
3.60716e-05
3.51685e-05
3.4273e-05
3.3384e-05
3.25007e-05
3.16222e-05
3.07481e-05
2.98776e-05
2.90104e-05
2.81462e-05
2.72846e-05
2.64255e-05
2.55686e-05
2.47137e-05
2.38607e-05
2.30094e-05
2.21597e-05
2.13116e-05
2.04648e-05
1.96193e-05
1.87751e-05
1.7932e-05
1.709e-05
1.6249e-05
1.54091e-05
1.457e-05
1.37319e-05
1.28945e-05
1.2058e-05
1.12222e-05
1.03872e-05
9.55288e-06
8.71922e-06
7.8862e-06
7.05379e-06
6.22198e-06
5.39075e-06
4.56005e-06
3.72991e-06
2.90023e-06
2.07098e-06
1.24313e-06
4.12291e-07
4.4353e-05
4.18051e-05
4.07453e-05
3.98204e-05
3.8865e-05
3.79142e-05
3.69848e-05
3.60717e-05
3.51686e-05
3.4273e-05
3.3384e-05
3.25007e-05
3.16223e-05
3.07481e-05
2.98776e-05
2.90104e-05
2.81462e-05
2.72846e-05
2.64255e-05
2.55686e-05
2.47137e-05
2.38607e-05
2.30094e-05
2.21598e-05
2.13116e-05
2.04648e-05
1.96193e-05
1.87751e-05
1.7932e-05
1.709e-05
1.62491e-05
1.54091e-05
1.457e-05
1.37319e-05
1.28945e-05
1.2058e-05
1.12222e-05
1.03872e-05
9.55288e-06
8.71922e-06
7.88621e-06
7.0538e-06
6.22198e-06
5.39076e-06
4.56006e-06
3.72991e-06
2.90024e-06
2.07098e-06
1.24313e-06
4.12296e-07
4.43469e-05
4.18084e-05
4.07446e-05
3.98208e-05
3.88652e-05
3.79143e-05
3.69849e-05
3.60717e-05
3.51686e-05
3.42731e-05
3.3384e-05
3.25007e-05
3.16223e-05
3.07481e-05
2.98776e-05
2.90104e-05
2.81462e-05
2.72847e-05
2.64255e-05
2.55686e-05
2.47137e-05
2.38607e-05
2.30094e-05
2.21598e-05
2.13116e-05
2.04648e-05
1.96193e-05
1.87751e-05
1.7932e-05
1.709e-05
1.62491e-05
1.54091e-05
1.457e-05
1.37319e-05
1.28945e-05
1.2058e-05
1.12223e-05
1.03872e-05
9.55289e-06
8.71923e-06
7.88621e-06
7.0538e-06
6.22199e-06
5.39076e-06
4.56006e-06
3.72992e-06
2.90024e-06
2.07099e-06
1.24314e-06
4.123e-07
4.4339e-05
4.1814e-05
4.0743e-05
3.98213e-05
3.88654e-05
3.79143e-05
3.69849e-05
3.60718e-05
3.51687e-05
3.42731e-05
3.33841e-05
3.25008e-05
3.16223e-05
3.07481e-05
2.98776e-05
2.90105e-05
2.81462e-05
2.72847e-05
2.64256e-05
2.55686e-05
2.47138e-05
2.38607e-05
2.30095e-05
2.21598e-05
2.13116e-05
2.04648e-05
1.96193e-05
1.87751e-05
1.7932e-05
1.709e-05
1.62491e-05
1.54091e-05
1.457e-05
1.37319e-05
1.28945e-05
1.2058e-05
1.12223e-05
1.03872e-05
9.5529e-06
8.71924e-06
7.88622e-06
7.05381e-06
6.22199e-06
5.39077e-06
4.56007e-06
3.72992e-06
2.90025e-06
2.07099e-06
1.24314e-06
4.12306e-07
4.43284e-05
4.18233e-05
4.07402e-05
3.98221e-05
3.88658e-05
3.79144e-05
3.6985e-05
3.60718e-05
3.51687e-05
3.42731e-05
3.33841e-05
3.25008e-05
3.16224e-05
3.07482e-05
2.98777e-05
2.90105e-05
2.81463e-05
2.72847e-05
2.64256e-05
2.55687e-05
2.47138e-05
2.38608e-05
2.30095e-05
2.21598e-05
2.13116e-05
2.04648e-05
1.96194e-05
1.87751e-05
1.7932e-05
1.709e-05
1.62491e-05
1.54091e-05
1.45701e-05
1.37319e-05
1.28946e-05
1.2058e-05
1.12223e-05
1.03872e-05
9.5529e-06
8.71924e-06
7.88623e-06
7.05382e-06
6.222e-06
5.39078e-06
4.56008e-06
3.72993e-06
2.90026e-06
2.071e-06
1.24315e-06
4.12312e-07
4.43137e-05
4.18376e-05
4.07356e-05
3.98232e-05
3.88665e-05
3.79145e-05
3.6985e-05
3.60719e-05
3.51688e-05
3.42732e-05
3.33842e-05
3.25008e-05
3.16224e-05
3.07482e-05
2.98777e-05
2.90105e-05
2.81463e-05
2.72847e-05
2.64256e-05
2.55687e-05
2.47138e-05
2.38608e-05
2.30095e-05
2.21598e-05
2.13116e-05
2.04648e-05