/*--------------------------------*- C++ -*----------------------------------*\
  =========                 |
  \\      /  F ield         | OpenFOAM: The Open Source CFD Toolbox
   \\    /   O peration     | Website:  https://openfoam.org
    \\  /    A nd           | Version:  11
     \\/     M anipulation  |
\*---------------------------------------------------------------------------*/
FoamFile
{
    format      ascii;
    class       surfaceScalarField;
    location    "0";
    object      phi;
}
// * * * * * * * * * * * * * * * * * * * * * * * * * * * * * * * * * * * * * //

dimensions      [0 3 -1 0 0 0 0];

internalField   nonuniform List<scalar> 
222000
(
3.86604e-08
5.10046e-08
4.49118e-12
5.72754e-18
3.8331e-08
3.44351e-10
-1.49448e-11
4.58786e-18
3.77608e-08
5.74713e-10
-4.59316e-12
1.079e-17
3.75649e-08
2.01995e-10
-6.0554e-12
2.72885e-18
3.74874e-08
8.33685e-11
-5.87333e-12
4.30258e-18
3.74218e-08
7.10369e-11
-5.42812e-12
-3.00227e-19
3.73614e-08
6.55824e-11
-5.15644e-12
1.63081e-18
3.73119e-08
5.43721e-11
-4.88583e-12
1.03574e-19
3.72719e-08
4.45609e-11
-4.6109e-12
3.71645e-19
3.72382e-08
3.80605e-11
-4.37824e-12
-3.71823e-18
3.72089e-08
3.35044e-11
-4.1843e-12
-1.01548e-17
3.71831e-08
2.98423e-11
-4.00991e-12
-1.29199e-17
3.71602e-08
2.67677e-11
-3.8487e-12
-1.14775e-17
3.71397e-08
2.4204e-11
-3.70144e-12
7.72112e-18
3.71212e-08
2.20622e-11
-3.56759e-12
-8.52889e-18
3.71044e-08
2.02463e-11
-3.44501e-12
-1.19062e-17
3.7089e-08
1.86828e-11
-3.33171e-12
-2.87269e-17
3.70749e-08
1.73228e-11
-3.22652e-12
-1.72563e-17
3.70619e-08
1.61304e-11
-3.12859e-12
-1.41585e-17
3.70499e-08
1.50767e-11
-3.03717e-12
2.79774e-18
3.70387e-08
1.41403e-11
-2.95147e-12
-3.78771e-17
3.70283e-08
1.33034e-11
-2.87096e-12
-3.1009e-17
3.70185e-08
1.25503e-11
-2.79511e-12
-2.81482e-17
3.70094e-08
1.18675e-11
-2.72352e-12
6.0273e-18
3.70008e-08
1.12482e-11
-2.65565e-12
-8.91971e-17
3.69927e-08
1.06854e-11
-2.59129e-12
-9.27482e-17
3.6985e-08
1.01823e-11
-2.53019e-12
-4.68857e-17
3.69778e-08
9.69514e-12
-2.4722e-12
-1.83717e-16
3.6971e-08
9.23864e-12
-2.41668e-12
-3.27892e-16
3.69645e-08
8.85244e-12
-2.36354e-12
-2.29477e-16
3.69583e-08
8.50255e-12
-2.31304e-12
-9.50166e-18
3.69524e-08
8.1423e-12
-2.26504e-12
3.22055e-16
3.69469e-08
7.77957e-12
-2.21831e-12
-4.36256e-16
3.69415e-08
7.50118e-12
-2.17262e-12
-1.54954e-15
3.69364e-08
7.28384e-12
-2.13071e-12
-2.59869e-17
3.69316e-08
6.94359e-12
-2.0915e-12
1.4287e-15
3.69269e-08
6.64467e-12
-2.05066e-12
3.48375e-16
3.69224e-08
6.0954e-12
-2.01026e-12
-2.08871e-15
3.69182e-08
6.80094e-12
-1.97388e-12
-1.62575e-15
3.69141e-08
5.96177e-12
-1.94357e-12
4.12994e-15
3.69101e-08
5.76633e-12
-1.90744e-12
2.80967e-15
3.69063e-08
5.71789e-12
-1.86111e-12
-9.04838e-15
3.69027e-08
5.61359e-12
-1.82994e-12
-1.29278e-14
3.68992e-08
4.99887e-12
-1.81314e-12
1.0755e-15
3.68958e-08
5.37067e-12
-1.80672e-12
1.32433e-14
3.68926e-08
5.71935e-12
-1.67551e-12
-7.28124e-15
3.68894e-08
4.49273e-12
-1.91608e-12
-3.19267e-14
3.68868e-08
3.43657e-12
-1.27584e-12
-1.22028e-14
3.68835e-08
7.15125e-12
-3.13847e-12
5.74202e-14
4.44092e-12
-4.3971e-13
5.0542e-14
1.4734e-07
1.06301e-07
1.87945e-11
1.51292e-17
1.46376e-07
1.36171e-09
-5.3765e-11
1.33415e-17
1.44334e-07
2.63468e-09
-1.76017e-11
3.38046e-17
1.43584e-07
9.73936e-10
-2.23175e-11
6.13754e-18
1.43288e-07
4.01561e-10
-2.18709e-11
9.32471e-18
1.43044e-07
3.35026e-10
-2.02757e-11
-6.17096e-18
1.4282e-07
3.09346e-10
-1.92739e-11
-1.25059e-18
1.42635e-07
2.5761e-10
-1.82994e-11
-2.6174e-18
1.42485e-07
2.11539e-10
-1.73039e-11
-4.5812e-18
1.42359e-07
1.80708e-10
-1.64505e-11
-1.75544e-17
1.42249e-07
1.59096e-10
-1.57352e-11
-4.94921e-17
1.42152e-07
1.41772e-10
-1.50921e-11
-5.4908e-17
1.42066e-07
1.2723e-10
-1.44971e-11
-6.07509e-17
1.41989e-07
1.15089e-10
-1.39523e-11
2.43706e-17
1.4192e-07
1.04939e-10
-1.34561e-11
-4.14931e-17
1.41857e-07
9.63306e-11
-1.3001e-11
-4.55789e-17
1.41799e-07
8.89173e-11
-1.25799e-11
-1.11649e-16
1.41746e-07
8.24658e-11
-1.21885e-11
-7.15956e-17
1.41697e-07
7.68072e-11
-1.18238e-11
-6.45542e-17
1.41652e-07
7.18065e-11
-1.14829e-11
1.5312e-17
1.4161e-07
6.73605e-11
-1.11632e-11
-1.37944e-16
1.41571e-07
6.33847e-11
-1.08626e-11
-1.04699e-16
1.41534e-07
5.98064e-11
-1.05791e-11
-1.02913e-16
1.415e-07
5.65651e-11
-1.03114e-11
5.70237e-17
1.41468e-07
5.36228e-11
-1.00575e-11
-2.82197e-16
1.41437e-07
5.09468e-11
-9.81658e-12
-2.9555e-16
1.41408e-07
4.8534e-11
-9.58787e-12
-2.61541e-16
1.41381e-07
4.62345e-11
-9.37033e-12
-6.14554e-16
1.41355e-07
4.40906e-11
-9.1621e-12
-8.31344e-16
1.41331e-07
4.22431e-11
-8.963e-12
-8.5358e-16
1.41308e-07
4.05302e-11
-8.77334e-12
-1.78236e-16
1.41286e-07
3.88222e-11
-8.59296e-12
9.94221e-16
1.41265e-07
3.71673e-11
-8.41734e-12
-1.8185e-15
1.41245e-07
3.58059e-11
-8.24676e-12
-4.63037e-15
1.41225e-07
3.46582e-11
-8.08922e-12
1.30198e-15
1.41207e-07
3.3186e-11
-7.93946e-12
3.89182e-15
1.4119e-07
3.17427e-11
-7.78464e-12
2.07321e-15
1.41173e-07
3.01568e-11
-7.64169e-12
-1.41685e-14
1.41157e-07
3.10663e-11
-7.49521e-12
7.29574e-16
1.41141e-07
2.86764e-11
-7.37904e-12
1.15581e-14
1.41126e-07
2.76347e-11
-7.24878e-12
1.25696e-14
1.41112e-07
2.71222e-11
-7.08265e-12
-3.1757e-14
1.41099e-07
2.63706e-11
-6.95579e-12
-4.47708e-14
1.41085e-07
2.45881e-11
-6.8751e-12
6.88033e-15
1.41073e-07
2.55256e-11
-6.87942e-12
4.72551e-14
1.41061e-07
2.52264e-11
-6.40622e-12
-2.33107e-14
1.41048e-07
2.21715e-11
-7.21977e-12
-1.12044e-13
1.41039e-07
1.75549e-11
-4.88688e-12
-5.77182e-14
1.41026e-07
3.35219e-11
-1.15936e-11
1.35454e-13
1.88255e-11
-2.09671e-12
1.40454e-13
3.20505e-07
1.64902e-07
3.99602e-11
3.26036e-17
3.18795e-07
3.18171e-09
-1.10149e-10
2.99308e-17
3.14676e-07
6.79189e-09
-3.84745e-11
7.27541e-17
3.13052e-07
2.64531e-09
-4.69758e-11
1.75479e-17
3.12405e-07
1.09498e-09
-4.6503e-11
2.33561e-17
3.11888e-07
8.9545e-10
-4.32882e-11
-8.6412e-18
3.11412e-07
8.25937e-10
-4.11888e-11
1.03257e-18
3.11018e-07
6.90611e-10
-3.91817e-11
-3.16725e-18
3.10699e-07
5.6829e-10
-3.7122e-11
-6.16013e-18
3.10429e-07
4.8561e-10
-3.53344e-11
-3.34385e-17
3.10195e-07
4.27601e-10
-3.3827e-11
-9.57636e-17
3.09988e-07
3.8121e-10
-3.24712e-11
-1.10903e-16
3.09804e-07
3.42281e-10
-3.12154e-11
-1.20666e-16
3.09639e-07
3.09747e-10
-3.00627e-11
4.66046e-17
3.09491e-07
2.82524e-10
-2.90104e-11
-7.8836e-17
3.09356e-07
2.59427e-10
-2.80439e-11
-9.29526e-17
3.09232e-07
2.39531e-10
-2.71485e-11
-2.28054e-16
3.09119e-07
2.2221e-10
-2.63155e-11
-1.52073e-16
3.09014e-07
2.07012e-10
-2.55383e-11
-1.33898e-16
3.08917e-07
1.93578e-10
-2.48113e-11
2.58036e-17
3.08827e-07
1.81631e-10
-2.41287e-11
-2.81562e-16
3.08743e-07
1.70942e-10
-2.34865e-11
-2.31805e-16
3.08664e-07
1.61321e-10
-2.28805e-11
-2.24771e-16
3.0859e-07
1.52609e-10
-2.23078e-11
9.91159e-17
3.08521e-07
1.44698e-10
-2.17643e-11
-5.92187e-16
3.08456e-07
1.37493e-10
-2.12483e-11
-6.62785e-16
3.08394e-07
1.30954e-10
-2.0758e-11
-5.24323e-16
3.08336e-07
1.24816e-10
-2.02916e-11
-1.27136e-15
3.08281e-07
1.19123e-10
-1.98451e-11
-1.89748e-15
3.08228e-07
1.14053e-10
-1.94178e-11
-1.86967e-15
3.08178e-07
1.0937e-10
-1.90106e-11
-4.61511e-16
3.08131e-07
1.04839e-10
-1.8623e-11
2.13969e-15
3.08086e-07
1.00494e-10
-1.82461e-11
-3.39814e-15
3.08043e-07
9.67366e-11
-1.78794e-11
-1.01217e-14
3.08002e-07
9.34288e-11
-1.75398e-11
1.37451e-15
3.07962e-07
8.96658e-11
-1.72181e-11
8.54027e-15
3.07925e-07
8.6116e-11
-1.68873e-11
4.26809e-15
3.07889e-07
8.19623e-11
-1.65755e-11
-2.56772e-14
3.07854e-07
8.29748e-11
-1.62641e-11
-2.53156e-15
3.07821e-07
7.76344e-11
-1.60124e-11
2.45685e-14
3.07789e-07
7.49931e-11
-1.57327e-11
2.66259e-14
3.07759e-07
7.3223e-11
-1.53768e-11
-6.37692e-14
3.0773e-07
7.12068e-11
-1.51013e-11
-9.5348e-14
3.07701e-07
6.74379e-11
-1.49269e-11
7.13893e-15
3.07674e-07
6.79278e-11
-1.49246e-11
9.77751e-14
3.07648e-07
6.7108e-11
-1.39354e-11
-4.09773e-14
3.07622e-07
6.27909e-11
-1.56038e-11
-2.33851e-13
3.07601e-07
4.85453e-11
-1.08197e-11
-1.32779e-13
3.07574e-07
8.63548e-11
-2.44339e-11
3.01035e-13
4.7683e-11
-5.37795e-12
3.24735e-13
5.88793e-07
2.25057e-07
7.13732e-11
5.51057e-17
5.86196e-07
5.96617e-09
-1.88159e-10
5.38067e-17
5.79352e-07
1.37069e-08
-7.09729e-11
1.27626e-16
5.76404e-07
5.67691e-09
-8.31171e-11
3.66005e-17
5.75211e-07
2.37125e-09
-8.31638e-11
4.38157e-17
5.74288e-07
1.89645e-09
-7.78481e-11
-1.06686e-17
5.73442e-07
1.74519e-09
-7.4178e-11
3.81913e-18
5.72738e-07
1.46575e-09
-7.07178e-11
-3.14931e-18
5.72164e-07
1.20925e-09
-6.71512e-11
-8.46049e-18
5.7168e-07
1.03382e-09
-6.40117e-11
-5.54644e-17
5.71258e-07
9.1053e-10
-6.13439e-11
-1.62547e-16
5.70886e-07
8.12172e-10
-5.89415e-11
-1.92104e-16
5.70556e-07
7.29671e-10
-5.67132e-11
-2.12626e-16
5.7026e-07
6.60643e-10
-5.46619e-11
7.06351e-17
5.69992e-07
6.02827e-10
-5.27839e-11
-1.32473e-16
5.69749e-07
5.53744e-10
-5.10557e-11
-1.59958e-16
5.69526e-07
5.1145e-10
-4.94524e-11
-3.95381e-16
5.69322e-07
4.74615e-10
-4.79587e-11
-2.78857e-16
5.69133e-07
4.4228e-10
-4.65633e-11
-2.4525e-16
5.68958e-07
4.13691e-10
-4.52566e-11
3.78943e-17
5.68796e-07
3.88255e-10
-4.40285e-11
-4.81405e-16
5.68644e-07
3.65487e-10
-4.28718e-11
-4.30952e-16
5.68502e-07
3.44989e-10
-4.17795e-11
-4.23671e-16
5.68369e-07
3.2643e-10
-4.07463e-11
1.65209e-16
5.68244e-07
3.09571e-10
-3.97653e-11
-1.00418e-15
5.68126e-07
2.94205e-10
-3.88331e-11
-1.2235e-15
5.68015e-07
2.80214e-10
-3.79469e-11
-9.4656e-16
5.67909e-07
2.67165e-10
-3.71033e-11
-2.16286e-15
5.6781e-07
2.55083e-10
-3.62954e-11
-3.35703e-15
5.67715e-07
2.44206e-10
-3.55219e-11
-3.48071e-15
5.67625e-07
2.34129e-10
-3.47841e-11
-1.15405e-15
5.6754e-07
2.2449e-10
-3.40814e-11
3.83198e-15
5.67458e-07
2.15351e-10
-3.33988e-11
-5.23802e-15
5.6738e-07
2.07242e-10
-3.27347e-11
-1.80057e-14
5.67306e-07
1.99947e-10
-3.21169e-11
6.99868e-16
5.67235e-07
1.92177e-10
-3.15316e-11
1.4988e-14
5.67167e-07
1.84763e-10
-3.09345e-11
8.12452e-15
5.67102e-07
1.77044e-10
-3.03678e-11
-4.28257e-14
5.6704e-07
1.75792e-10
-2.98018e-11
-8.00995e-15
5.6698e-07
1.66732e-10
-2.93387e-11
4.19532e-14
5.66922e-07
1.61092e-10
-2.88373e-11
4.95651e-14
5.66867e-07
1.56699e-10
-2.82013e-11
-1.06416e-13
5.66814e-07
1.52131e-10
-2.76866e-11
-1.68014e-13
5.66763e-07
1.45709e-10
-2.73547e-11
8.13104e-16
5.66714e-07
1.44956e-10
-2.73533e-11
1.67154e-13
5.66667e-07
1.40916e-10
-2.56272e-11
-5.15611e-14
5.6662e-07
1.36341e-10
-2.84376e-11
-3.99932e-13
5.66581e-07
1.06928e-10
-2.02236e-11
-2.7133e-13
5.66532e-07
1.80884e-10
-4.33012e-11
4.95116e-13
9.90772e-11
-1.15478e-11
5.90101e-13
9.9517e-07
2.8422e-07
1.19451e-10
8.12478e-17
9.91679e-07
9.74698e-09
-2.9031e-10
8.64863e-17
9.81515e-07
2.39907e-08
-1.19752e-10
2.00973e-16
9.76646e-07
1.06808e-08
-1.34375e-10
6.71681e-17
9.74623e-07
4.52977e-09
-1.35946e-10
7.23274e-17
9.73115e-07
3.53236e-09
-1.28186e-10
-1.10574e-17
9.71745e-07
3.23827e-09
-1.22398e-10
6.51468e-18
9.70594e-07
2.73357e-09
-1.17e-10
-1.72053e-18
9.69652e-07
2.26251e-09
-1.11405e-10
-1.19721e-17
9.68857e-07
1.93573e-09
-1.06395e-10
-8.4546e-17
9.68164e-07
1.70542e-09
-1.02093e-10
-2.56221e-16
9.67552e-07
1.52218e-09
-9.82112e-11
-3.05481e-16
9.67008e-07
1.36857e-09
-9.46033e-11
-3.51158e-16
9.6652e-07
1.23987e-09
-9.12694e-11
8.95195e-17
9.66079e-07
1.13194e-09
-8.82066e-11
-2.08827e-16
9.65678e-07
1.04025e-09
-8.53808e-11
-2.50486e-16
9.65311e-07
9.612e-10
-8.27545e-11
-6.26786e-16
9.64973e-07
8.9232e-10
-8.03033e-11
-4.74326e-16
9.64662e-07
8.31824e-10
-7.80096e-11
-4.23312e-16
9.64373e-07
7.78312e-10
-7.58585e-11
4.89278e-17
9.64104e-07
7.3068e-10
-7.38341e-11
-7.4574e-16
9.63854e-07
6.88026e-10
-7.19253e-11
-7.36322e-16
9.63619e-07
6.49609e-10
-7.01207e-11
-7.49121e-16
9.63399e-07
6.14822e-10
-6.8412e-11
2.6654e-16
9.63193e-07
5.83209e-10
-6.67884e-11
-1.50536e-15
9.62998e-07
5.54379e-10
-6.52443e-11
-2.05757e-15
9.62814e-07
5.28062e-10
-6.37748e-11
-1.63235e-15
9.62639e-07
5.03629e-10
-6.2375e-11
-3.29735e-15
9.62474e-07
4.81047e-10
-6.10342e-11
-5.19649e-15
9.62318e-07
4.60505e-10
-5.97497e-11
-5.9855e-15
9.62169e-07
4.41476e-10
-5.85227e-11
-2.70479e-15
9.62028e-07
4.23441e-10
-5.7353e-11
6.21634e-15
9.61893e-07
4.06421e-10
-5.62187e-11
-6.93548e-15
9.61764e-07
3.91076e-10
-5.51154e-11
-2.87979e-14
9.61641e-07
3.77076e-10
-5.40834e-11
-1.74e-15
9.61524e-07
3.62718e-10
-5.31038e-11
2.33545e-14
9.61411e-07
3.49205e-10
-5.21143e-11
1.48974e-14
9.61303e-07
3.3503e-10
-5.1174e-11
-6.82869e-14
9.612e-07
3.30535e-10
-5.02234e-11
-1.67967e-14
9.61101e-07
3.15031e-10
-4.9438e-11
6.33797e-14
9.61006e-07
3.04657e-10
-4.86184e-11
8.65399e-14
9.60915e-07
2.95814e-10
-4.7583e-11
-1.58905e-13
9.60827e-07
2.87205e-10
-4.6691e-11
-2.67826e-13
9.60742e-07
2.76285e-10
-4.60968e-11
-1.98032e-14
9.60661e-07
2.72521e-10
-4.61171e-11
2.55689e-13
9.60583e-07
2.64384e-10
-4.33866e-11
-3.80092e-14
9.60506e-07
2.60025e-10
-4.76109e-11
-6.07428e-13
9.60441e-07
2.06155e-10
-3.48246e-11
-5.1891e-13
9.60359e-07
3.3391e-10
-7.01531e-11
6.71974e-13
1.84988e-10
-2.26575e-11
9.51768e-13
1.60244e-06
3.39186e-07
1.8246e-10
1.07493e-16
1.59829e-06
1.43135e-08
-4.16993e-10
1.28944e-16
1.58446e-06
3.80113e-08
-1.90772e-10
2.94346e-16
1.57693e-06
1.84093e-08
-2.05616e-10
1.14621e-16
1.57368e-06
7.99289e-09
-2.10024e-10
1.11417e-16
1.57135e-06
6.06158e-09
-1.99842e-10
-7.21624e-18
1.56926e-06
5.52458e-09
-1.91412e-10
8.74025e-18
1.56748e-06
4.69032e-09
-1.83566e-10
2.59649e-18
1.56602e-06
3.898e-09
-1.75378e-10
-1.66544e-17
1.56479e-06
3.33876e-09
-1.67885e-10
-1.21269e-16
1.56371e-06
2.94293e-09
-1.61366e-10
-3.82727e-16
1.56276e-06
2.62887e-09
-1.5546e-10
-4.57767e-16
1.56191e-06
2.36579e-09
-1.49955e-10
-5.52742e-16
1.56115e-06
2.14503e-09
-1.44844e-10
8.83775e-17
1.56046e-06
1.95959e-09
-1.40127e-10
-3.17023e-16
1.55984e-06
1.8019e-09
-1.35761e-10
-3.67719e-16
1.55927e-06
1.66587e-09
-1.31693e-10
-9.33e-16
1.55874e-06
1.54726e-09
-1.27887e-10
-7.6929e-16
1.55825e-06
1.44302e-09
-1.24318e-10
-7.05487e-16
1.5578e-06
1.35075e-09
-1.20965e-10
5.04172e-17
1.55738e-06
1.26858e-09
-1.17804e-10
-1.07374e-15
1.55699e-06
1.19495e-09
-1.14819e-10
-1.19297e-15
1.55662e-06
1.1286e-09
-1.11993e-10
-1.2814e-15
1.55628e-06
1.06851e-09
-1.09313e-10
4.09048e-16
1.55595e-06
1.01387e-09
-1.06765e-10
-2.03999e-15
1.55565e-06
9.64013e-10
-1.04339e-10
-3.2603e-15
1.55536e-06
9.18429e-10
-1.02027e-10
-2.75364e-15
1.55509e-06
8.76207e-10
-9.98223e-11
-4.65253e-15
1.55483e-06
8.37198e-10
-9.771e-11
-7.27699e-15
1.55458e-06
8.01546e-10
-9.5685e-11
-9.74641e-15
1.55435e-06
7.68482e-10
-9.37477e-11
-5.93365e-15
1.55413e-06
7.37272e-10
-9.18981e-11
9.33779e-15
1.55392e-06
7.07958e-10
-9.01078e-11
-7.53171e-15
1.55371e-06
6.81259e-10
-8.83684e-11
-4.27789e-14
1.55352e-06
6.56664e-10
-8.67301e-11
-7.84913e-15
1.55334e-06
6.32088e-10
-8.51698e-11
3.32199e-14
1.55316e-06
6.08892e-10
-8.36122e-11
2.6692e-14
1.55299e-06
5.85704e-10
-8.21354e-11
-1.04179e-13
1.55283e-06
5.73677e-10
-8.06147e-11
-3.22367e-14
1.55268e-06
5.49575e-10
-7.9341e-11
8.66828e-14
1.55253e-06
5.31606e-10
-7.8074e-11
1.45022e-13
1.55238e-06
5.15723e-10
-7.64881e-11
-2.16585e-13
1.55225e-06
5.00314e-10
-7.50094e-11
-3.98279e-13
1.55211e-06
4.83107e-10
-7.39769e-11
-6.81895e-14
1.55198e-06
4.74494e-10
-7.40597e-11
3.56187e-13
1.55186e-06
4.58379e-10
-7.00298e-11
2.83001e-14
1.55174e-06
4.54815e-10
-7.58454e-11
-8.34111e-13
1.55164e-06
3.66184e-10
-5.72367e-11
-9.45006e-13
1.55151e-06
5.70547e-10
-1.07518e-10
7.31069e-13
3.2412e-10
-4.19391e-11
1.40808e-12
2.49643e-06
3.8616e-07
2.77447e-10
1.25304e-16
2.49221e-06
1.90929e-08
-5.62304e-10
1.79015e-16
2.47499e-06
5.55183e-08
-2.85972e-10
4.0416e-16
2.46408e-06
2.96202e-08
-3.00781e-10
1.8352e-16
2.45907e-06
1.33096e-08
-3.10079e-10
1.62422e-16
2.45562e-06
9.80896e-09
-2.98348e-10
4.01612e-18
2.45257e-06
8.86434e-09
-2.87103e-10
8.92031e-18
2.44996e-06
7.5728e-09
-2.76508e-10
1.18918e-17
2.4478e-06
6.32623e-09
-2.65308e-10
-2.34453e-17
2.44597e-06
5.42793e-09
-2.54773e-10
-1.64954e-16
2.44437e-06
4.78801e-09
-2.4543e-10
-5.49333e-16
2.44295e-06
4.2816e-09
-2.36907e-10
-6.53445e-16
2.44169e-06
3.85775e-09
-2.28926e-10
-8.38996e-16
2.44055e-06
3.50142e-09
-2.2147e-10
4.4646e-17
2.43953e-06
3.20149e-09
-2.14546e-10
-4.74187e-16
2.43859e-06
2.9461e-09
-2.08106e-10
-5.12115e-16
2.43773e-06
2.72561e-09
-2.02084e-10
-1.31801e-15
2.43694e-06
2.53318e-09
-1.96434e-10
-1.19789e-15
2.43621e-06
2.3639e-09
-1.91119e-10
-1.14659e-15
2.43554e-06
2.21396e-09
-1.86112e-10
2.66171e-17
2.43491e-06
2.08031e-09
-1.81381e-10
-1.45124e-15
2.43432e-06
1.96048e-09
-1.76904e-10
-1.84326e-15
2.43377e-06
1.85243e-09
-1.72658e-10
-2.13379e-15
2.43325e-06
1.75451e-09
-1.68625e-10
5.93629e-16
2.43276e-06
1.66542e-09
-1.64784e-10
-2.47804e-15
2.4323e-06
1.58408e-09
-1.61122e-10
-4.89466e-15
2.43187e-06
1.50961e-09
-1.57627e-10
-4.58668e-15
2.43146e-06
1.44073e-09
-1.54289e-10
-6.16323e-15
2.43107e-06
1.37712e-09
-1.5109e-10
-9.12332e-15
2.4307e-06
1.31873e-09
-1.4802e-10
-1.50948e-14
2.43035e-06
1.26455e-09
-1.45077e-10
-1.21358e-14
2.43002e-06
1.21356e-09
-1.42262e-10
1.29062e-14
2.4297e-06
1.16577e-09
-1.39543e-10
-5.5416e-15
2.42939e-06
1.12198e-09
-1.36906e-10
-5.92299e-14
2.4291e-06
1.08138e-09
-1.34401e-10
-2.02053e-14
2.42883e-06
1.04137e-09
-1.32003e-10
4.26772e-14
2.42856e-06
1.0038e-09
-1.29643e-10
4.66312e-14
2.42831e-06
9.66578e-10
-1.27418e-10
-1.53462e-13
2.42806e-06
9.43993e-10
-1.2507e-10
-5.70914e-14
2.42783e-06
9.06231e-10
-1.23067e-10
1.0592e-13
2.4276e-06
8.76977e-10
-1.21187e-10
2.33884e-13
2.42739e-06
8.50796e-10
-1.18875e-10
-2.67722e-13
2.42718e-06
8.25335e-10
-1.16508e-10
-5.56023e-13
2.42698e-06
7.9799e-10
-1.14749e-10
-1.62415e-13
2.42679e-06
7.81448e-10
-1.14959e-10
4.48132e-13
2.4266e-06
7.55258e-10
-1.09365e-10
1.8839e-13
2.42642e-06
7.51356e-10
-1.16708e-10
-1.02135e-12
2.42627e-06
6.15534e-10
-9.11033e-11
-1.6309e-12
2.42607e-06
9.22179e-10
-1.58238e-10
4.8375e-13
5.41634e-10
-7.39754e-11
1.91652e-12
3.79959e-06
4.21347e-07
3.9172e-10
1.31047e-16
3.7962e-06
2.32052e-08
-7.16811e-10
2.3077e-16
3.77693e-06
7.51906e-08
-4.03787e-10
5.22123e-16
3.76221e-06
4.47671e-08
-4.24143e-10
2.76608e-16
3.75486e-06
2.10949e-08
-4.40768e-10
2.28109e-16
3.74994e-06
1.51549e-08
-4.29473e-10
2.81693e-17
3.74568e-06
1.35403e-08
-4.16123e-10
7.86506e-18
3.74202e-06
1.16415e-08
-4.02996e-10
2.96502e-17
3.73895e-06
9.78811e-09
-3.88749e-10
-3.08752e-17
3.73633e-06
8.42031e-09
-3.74856e-10
-2.14185e-16
3.73404e-06
7.43674e-09
-3.62202e-10
-7.57678e-16
3.73201e-06
6.65974e-09
-3.50516e-10
-8.91035e-16
3.7302e-06
6.00992e-09
-3.3949e-10
-1.22037e-15
3.72857e-06
5.46241e-09
-3.29099e-10
-7.65476e-17
3.72709e-06
5.00033e-09
-3.19369e-10
-7.05163e-16
3.72574e-06
4.60617e-09
-3.10258e-10
-6.82165e-16
3.7245e-06
4.26541e-09
-3.01695e-10
-1.76766e-15
3.72336e-06
3.96767e-09
-2.93624e-10
-1.79286e-15
3.72231e-06
3.70544e-09
-2.86002e-10
-1.81607e-15
3.72133e-06
3.4729e-09
-2.78795e-10
-5.54065e-17
3.72041e-06
3.26542e-09
-2.71965e-10
-1.83609e-15
3.71956e-06
3.0792e-09
-2.65483e-10
-2.7201e-15
3.71876e-06
2.91115e-09
-2.59318e-10
-3.4641e-15
3.71801e-06
2.75873e-09
-2.53449e-10
7.83619e-16
3.7173e-06
2.61996e-09
-2.47849e-10
-2.58259e-15
3.71664e-06
2.49315e-09
-2.42499e-10
-6.96407e-15
3.71601e-06
2.37691e-09
-2.37384e-10
-7.55749e-15
3.71541e-06
2.26946e-09
-2.32489e-10
-7.73436e-15
3.71484e-06
2.17018e-09
-2.27792e-10
-9.80769e-15
3.71431e-06
2.07884e-09
-2.23282e-10
-2.21408e-14
3.7138e-06
1.99402e-09
-2.18946e-10
-2.33172e-14
3.71331e-06
1.91429e-09
-2.14789e-10
1.59885e-14
3.71285e-06
1.83966e-09
-2.1078e-10
1.56959e-15
3.71241e-06
1.77102e-09
-2.06903e-10
-7.59934e-14
3.71198e-06
1.70708e-09
-2.03188e-10
-4.25554e-14
3.71158e-06
1.64468e-09
-1.99602e-10
4.76925e-14
3.71119e-06
1.58598e-09
-1.96125e-10
7.9303e-14
3.71082e-06
1.52942e-09
-1.92879e-10
-2.15246e-13
3.71047e-06
1.48911e-09
-1.89361e-10
-9.93975e-14
3.71013e-06
1.43271e-09
-1.86281e-10
1.09688e-13
3.7098e-06
1.38685e-09
-1.83571e-10
3.62821e-13
3.70949e-06
1.3458e-09
-1.80344e-10
-2.92095e-13
3.70918e-06
1.30485e-09
-1.76667e-10
-7.27419e-13
3.70889e-06
1.26273e-09
-1.73722e-10
-3.25726e-13
3.70861e-06
1.23547e-09
-1.7414e-10
4.84876e-13
3.70834e-06
1.19396e-09
-1.66835e-10
4.88406e-13
3.70808e-06
1.18652e-09
-1.75223e-10
-1.0507e-12
3.70785e-06
9.90958e-10
-1.41703e-10
-2.6629e-12
3.70757e-06
1.42952e-09
-2.26168e-10
-3.75482e-13
8.74183e-10
-1.24945e-10
2.34681e-12
5.68098e-06
4.416e-07
5.32068e-10
1.50304e-16
5.6792e-06
2.58546e-08
-8.69053e-10
2.68825e-16
5.6607e-06
9.42255e-08
-5.26744e-10
6.27459e-16
5.64263e-06
6.34054e-08
-5.72865e-10
3.85749e-16
5.63255e-06
3.17782e-08
-6.02846e-10
3.04282e-16
5.62585e-06
2.24504e-08
-5.95671e-10
6.82222e-17
5.62018e-06
1.97964e-08
-5.82788e-10
4.27601e-18
5.61526e-06
1.71244e-08
-5.68692e-10
6.01471e-17
5.61109e-06
1.45112e-08
-5.52392e-10
-3.91958e-17
5.60752e-06
1.25328e-08
-5.35611e-10
-2.65926e-16
5.60438e-06
1.10916e-08
-5.1971e-10
-1.01274e-15
5.60159e-06
9.95285e-09
-5.04696e-10
-1.1602e-15
5.59909e-06
9.00076e-09
-4.90329e-10
-1.70348e-15
5.59683e-06
8.19638e-09
-4.76614e-10
-3.05561e-16
5.59478e-06
7.51516e-09
-4.63615e-10
-1.05485e-15
5.59291e-06
6.93256e-09
-4.51322e-10
-8.7652e-16
5.59118e-06
6.42792e-09
-4.39677e-10
-2.25122e-15
5.58959e-06
5.98623e-09
-4.28627e-10
-2.56565e-15
5.58812e-06
5.59657e-09
-4.18131e-10
-2.79239e-15
5.58675e-06
5.25048e-09
-4.08154e-10
-2.37029e-16
5.58548e-06
4.94123e-09
-3.98654e-10
-2.1718e-15
5.58428e-06
4.66331e-09
-3.89602e-10
-3.81259e-15
5.58316e-06
4.4122e-09
-3.8096e-10
-5.4482e-15
5.58211e-06
4.18419e-09
-3.72705e-10
9.24588e-16
5.58112e-06
3.97638e-09
-3.64805e-10
-2.01254e-15
5.58018e-06
3.78628e-09
-3.57239e-10
-9.3124e-15
5.5793e-06
3.61179e-09
-3.49984e-10
-1.22404e-14
5.57846e-06
3.45048e-09
-3.43023e-10
-9.30646e-15
5.57766e-06
3.30136e-09
-3.36333e-10
-7.67903e-15
5.57691e-06
3.16386e-09
-3.29901e-10
-3.04385e-14
5.57619e-06
3.03606e-09
-3.23698e-10
-4.19454e-14
5.57551e-06
2.91597e-09
-3.17728e-10
1.67529e-14
5.57485e-06
2.80361e-09
-3.11982e-10
1.65334e-14
5.57423e-06
2.70005e-09
-3.06444e-10
-8.86631e-14
5.57364e-06
2.60326e-09
-3.01083e-10
-7.84075e-14
5.57307e-06
2.50924e-09
-2.95855e-10
4.16524e-14
5.57252e-06
2.42061e-09
-2.90865e-10
1.30018e-13
5.572e-06
2.33655e-09
-2.86268e-10
-2.88141e-13
5.5715e-06
2.27246e-09
-2.81137e-10
-1.65796e-13
5.57102e-06
2.18872e-09
-2.76493e-10
8.18425e-14
5.57056e-06
2.11873e-09
-2.72683e-10
5.38902e-13
5.57012e-06
2.0577e-09
-2.68363e-10
-2.61777e-13
5.56969e-06
1.99535e-09
-2.62822e-10
-8.8369e-13
5.56928e-06
1.93082e-09
-2.57994e-10
-5.72096e-13
5.56889e-06
1.88805e-09
-2.58702e-10
4.04751e-13
5.56851e-06
1.82778e-09
-2.49784e-10
9.67363e-13
5.56814e-06
1.81084e-09
-2.58126e-10
-7.4894e-13
5.56781e-06
1.54328e-09
-2.16178e-10
-4.07645e-12
5.56741e-06
2.14344e-09
-3.16642e-10
-2.22919e-12
1.36891e-09
-2.02264e-10
2.47966e-12
8.37235e-06
4.45173e-07
6.84589e-10
1.63666e-16
8.37206e-06
2.71636e-08
-1.01847e-09
2.75359e-16
8.3584e-06
1.08517e-07
-6.24943e-10
6.9544e-16
8.33905e-06
8.34821e-08
-7.31913e-10
4.91708e-16
8.32657e-06
4.50505e-08
-7.89549e-10
3.86175e-16
8.31805e-06
3.17589e-08
-7.92568e-10
1.27255e-16
8.31094e-06
2.76944e-08
-7.85704e-10
5.38276e-18
8.30474e-06
2.40989e-08
-7.74744e-10
1.11695e-16
8.2994e-06
2.06098e-08
-7.59348e-10
-3.8455e-17
8.29477e-06
1.79024e-08
-7.4177e-10
-3.15912e-16
8.29069e-06
1.58976e-08
-7.23976e-10
-1.29769e-15
8.28704e-06
1.43082e-08
-7.06461e-10
-1.43347e-15
8.28376e-06
1.29776e-08
-6.89241e-10
-2.23552e-15
8.28078e-06
1.18492e-08
-6.7244e-10
-6.61131e-16
8.27806e-06
1.08893e-08
-6.56213e-10
-1.55799e-15
8.27557e-06
1.00653e-08
-6.40626e-10
-1.09615e-15
8.27327e-06
9.34947e-09
-6.25674e-10
-2.69924e-15
8.27115e-06
8.72131e-09
-6.11335e-10
-3.48452e-15
8.26917e-06
8.1658e-09
-5.9759e-10
-4.11382e-15
8.26734e-06
7.67129e-09
-5.84419e-10
-5.63137e-16
8.26562e-06
7.22849e-09
-5.71791e-10
-2.36141e-15
8.26402e-06
6.82979e-09
-5.59681e-10
-5.05796e-15
8.26251e-06
6.46891e-09
-5.48058e-10
-8.23868e-15
8.26109e-06
6.1407e-09
-5.36896e-10
8.99406e-16
8.25975e-06
5.84109e-09
-5.26169e-10
-3.50279e-16
8.25848e-06
5.56663e-09
-5.15856e-10
-1.16364e-14
8.25729e-06
5.31432e-09
-5.05925e-10
-1.93235e-14
8.25615e-06
5.0809e-09
-4.9636e-10
-1.084e-14
8.25508e-06
4.86482e-09
-4.87145e-10
-5.55001e-16
8.25405e-06
4.6652e-09
-4.78266e-10
-3.87282e-14
8.25308e-06
4.47958e-09
-4.6967e-10
-7.06117e-14
8.25215e-06
4.30502e-09
-4.61357e-10
1.26293e-14
8.25127e-06
4.14151e-09
-4.53361e-10
4.27057e-14
8.25042e-06
3.99059e-09
-4.45684e-10
-9.16136e-14
8.24962e-06
3.84943e-09
-4.38175e-10
-1.31027e-13
8.24884e-06
3.71243e-09
-4.30759e-10
1.61138e-14
8.2481e-06
3.58302e-09
-4.23784e-10
2.06166e-13
8.2474e-06
3.46242e-09
-4.1746e-10
-3.59304e-13
8.24672e-06
3.36359e-09
-4.10199e-10
-2.76124e-13
8.24606e-06
3.24374e-09
-4.03357e-10
8.87686e-16
8.24544e-06
3.14112e-09
-3.98118e-10
7.66464e-13
8.24484e-06
3.05279e-09
-3.92569e-10
-1.49988e-13
8.24426e-06
2.96006e-09
-3.84481e-10
-9.86022e-13
8.2437e-06
2.86371e-09
-3.76821e-10
-9.03666e-13
8.24317e-06
2.80142e-09
-3.77878e-10
1.15321e-13
8.24265e-06
2.71662e-09
-3.67778e-10
1.61857e-12
8.24215e-06
2.67867e-09
-3.74279e-10
1.11199e-13
8.24169e-06
2.32965e-09
-3.23794e-10
-5.81823e-12
8.24116e-06
3.12381e-09
-4.37715e-10
-5.47524e-12
2.08453e-09
-3.14129e-10
1.95518e-12
1.21932e-05
4.32062e-07
8.34422e-10
1.68042e-16
1.21926e-05
2.90049e-08
-1.18858e-09
2.31456e-16
1.21877e-05
1.14079e-07
-6.70309e-10
6.92965e-16
1.21708e-05
1.01186e-07
-8.69357e-10
5.55241e-16
1.21577e-05
5.91683e-08
-9.80385e-10
4.44634e-16
1.21481e-05
4.23308e-08
-1.00309e-09
1.9106e-16
1.214e-05
3.68083e-08
-1.01162e-09
7.35504e-18
1.21329e-05
3.22754e-08
-1.01187e-09
1.89145e-16
1.21266e-05
2.79011e-08
-1.00355e-09
-2.16113e-17
1.2121e-05
2.44298e-08
-9.90042e-10
-3.57598e-16
1.21161e-05
2.18123e-08
-9.74141e-10
-1.60828e-15
1.21116e-05
1.9721e-08
-9.56998e-10
-1.67935e-15
1.21076e-05
1.79625e-08
-9.391e-10
-2.7549e-15
1.21039e-05
1.64629e-08
-9.20873e-10
-1.09999e-15
1.21005e-05
1.51792e-08
-9.02666e-10
-2.23636e-15
1.20974e-05
1.40713e-08
-8.84698e-10
-1.3471e-15
1.20945e-05
1.31045e-08
-8.67081e-10
-3.05035e-15
1.20918e-05
1.22528e-08
-8.49879e-10
-4.47042e-15
1.20893e-05
1.14969e-08
-8.33138e-10
-5.75766e-15
1.2087e-05
1.08217e-08
-8.16883e-10
-1.03409e-15
1.20848e-05
1.02152e-08
-8.0112e-10
-2.31486e-15
1.20827e-05
9.66759e-09
-7.85853e-10
-6.33337e-15
1.20808e-05
9.17063e-09
-7.71068e-10
-1.18883e-14
1.2079e-05
8.71757e-09
-7.56757e-10
6.17537e-16
1.20773e-05
8.30303e-09
-7.42908e-10
2.77589e-15
1.20756e-05
7.9225e-09
-7.29511e-10
-1.34709e-14
1.20741e-05
7.57194e-09
-7.16531e-10
-2.94377e-14
1.20726e-05
7.24717e-09
-7.03957e-10
-1.26185e-14
1.20713e-05
6.94594e-09
-6.91793e-10
1.40546e-14
1.20699e-05
6.66702e-09
-6.80032e-10
-4.46525e-14
1.20687e-05
6.40743e-09
-6.68582e-10
-1.11112e-13
1.20675e-05
6.16306e-09
-6.57439e-10
8.52609e-16
1.20663e-05
5.93351e-09
-6.46717e-10
8.238e-14
1.20652e-05
5.72141e-09
-6.36457e-10
-7.91118e-14
1.20642e-05
5.52319e-09
-6.26308e-10
-2.02853e-13
1.20632e-05
5.33052e-09
-6.16138e-10
-3.42101e-14
1.20622e-05
5.14744e-09
-6.06698e-10
3.15067e-13
1.20613e-05
4.97925e-09
-5.98279e-10
-4.14996e-13
1.20604e-05
4.83673e-09
-5.88346e-10
-4.48538e-13
1.20596e-05
4.6691e-09
-5.78569e-10
-1.45118e-13
1.20588e-05
4.52139e-09
-5.7156e-10
1.04572e-12
1.2058e-05
4.39901e-09
-5.64725e-10
5.52387e-14
1.20572e-05
4.2692e-09
-5.53315e-10
-1.01603e-12
1.20565e-05
4.12744e-09
-5.41666e-10
-1.28428e-12
1.20558e-05
4.03642e-09
-5.4313e-10
-4.01436e-13
1.20551e-05
3.92591e-09
-5.32643e-10
2.3949e-12
1.20545e-05
3.85729e-09
-5.34929e-10
1.66818e-12
1.20539e-05
3.41444e-09
-4.75724e-10
-7.70829e-12
1.20532e-05
4.43068e-09
-6.01397e-10
-1.01984e-11
3.08156e-09
-4.69393e-10
5.44291e-13
1.75691e-05
4.03843e-07
9.61702e-10
1.69106e-16
1.7565e-05
3.46108e-08
-1.42561e-09
1.42442e-16
1.75702e-05
1.09548e-07
-6.75658e-10
6.16743e-16
1.75599e-05
1.12354e-07
-9.5692e-10
5.48673e-16
1.75493e-05
7.09704e-08
-1.14605e-09
4.56972e-16
1.75407e-05
5.20874e-08
-1.19693e-09
2.37685e-16
1.7533e-05
4.57575e-08
-1.2318e-09
1.13541e-17
1.75259e-05
4.06595e-08
-1.25525e-09
2.88872e-16
1.75194e-05
3.56284e-08
-1.2639e-09
3.75178e-17
1.75136e-05
3.15326e-08
-1.26272e-09
-3.81377e-16
1.75083e-05
2.83858e-08
-1.25583e-09
-1.89017e-15
1.75034e-05
2.58417e-08
-1.24505e-09
-1.85193e-15
1.74989e-05
2.36823e-08
-1.23145e-09
-3.1095e-15
1.74948e-05
2.18237e-08
-1.21593e-09
-1.53774e-15
1.74909e-05
2.02186e-08
-1.19919e-09
-2.98196e-15
1.74873e-05
1.88223e-08
-1.18171e-09
-1.59787e-15
1.7484e-05
1.75955e-08
-1.16381e-09
-3.20649e-15
1.74809e-05
1.65081e-08
-1.14571e-09
-5.39997e-15
1.7478e-05
1.55377e-08
-1.12759e-09
-7.5479e-15
1.74753e-05
1.46665e-08
-1.10957e-09
-1.57984e-15
1.74727e-05
1.38803e-08
-1.09174e-09
-1.8446e-15
1.74703e-05
1.31673e-08
-1.07417e-09
-7.48584e-15
1.7468e-05
1.25178e-08
-1.05689e-09
-1.62497e-14
1.74658e-05
1.19235e-08
-1.03994e-09
-3.32681e-17
1.74638e-05
1.13778e-08
-1.02335e-09
7.61309e-15
1.74618e-05
1.08753e-08
-1.00713e-09
-1.4409e-14
1.746e-05
1.0411e-08
-9.91263e-10
-4.28871e-14
1.74582e-05
9.97986e-09
-9.75749e-10
-1.49905e-14
1.74565e-05
9.57875e-09
-9.60633e-10
3.76618e-14
1.74549e-05
9.20624e-09
-9.45931e-10
-4.53447e-14
1.74534e-05
8.85902e-09
-9.31505e-10
-1.6349e-13
1.7452e-05
8.5316e-09
-9.17338e-10
-2.01526e-14
1.74506e-05
8.22296e-09
-9.03674e-10
1.39072e-13
1.74493e-05
7.93712e-09
-8.90618e-10
-4.85464e-14
1.7448e-05
7.67015e-09
-8.77546e-10
-2.98348e-13
1.74468e-05
7.41018e-09
-8.6423e-10
-1.10802e-13
1.74456e-05
7.16199e-09
-8.52004e-10
4.6991e-13
1.74445e-05
6.9359e-09
-8.41258e-10
-4.23362e-13
1.74434e-05
6.73795e-09
-8.28243e-10
-7.23618e-13
1.74424e-05
6.51316e-09
-8.14859e-10
-3.69907e-13
1.74414e-05
6.31063e-09
-8.05835e-10
1.38718e-12
1.74405e-05
6.1451e-09
-7.97792e-10
3.45605e-13
1.74395e-05
5.96837e-09
-7.82305e-10
-1.0146e-12
1.74387e-05
5.77006e-09
-7.65516e-10
-1.69382e-12
1.74378e-05
5.64451e-09
-7.67553e-10
-1.11484e-12
1.7437e-05
5.50326e-09
-7.57691e-10
3.21045e-12
1.74362e-05
5.38923e-09
-7.53213e-10
3.90251e-12
1.74355e-05
4.84461e-09
-6.84416e-10
-9.55431e-12
1.74346e-05
6.11885e-09
-8.2376e-10
-1.60887e-11
4.41299e-09