/*--------------------------------*- C++ -*----------------------------------*\
  =========                 |
  \\      /  F ield         | OpenFOAM: The Open Source CFD Toolbox
   \\    /   O peration     | Website:  https://openfoam.org
    \\  /    A nd           | Version:  11
     \\/     M anipulation  |
\*---------------------------------------------------------------------------*/
FoamFile
{
    format      ascii;
    class       volVectorField;
    location    "0";
    object      U;
}
// * * * * * * * * * * * * * * * * * * * * * * * * * * * * * * * * * * * * * //

dimensions      [0 1 -1 0 0 0 0];

internalField   nonuniform List<vector> 
75000
(
(1.22576e-06 8.54325e-08 0.000196354)
(3.22618e-09 2.47217e-08 0.000199132)
(3.96235e-09 1.09097e-08 0.000194532)
(6.87167e-10 1.24141e-08 0.000192929)
(-3.092e-11 1.13624e-08 0.00019247)
(-4.07066e-11 1.06812e-08 0.000192138)
(-6.65894e-11 1.03091e-08 0.000191803)
(-1.29624e-10 9.80037e-09 0.000191519)
(-1.73912e-10 9.25786e-09 0.000191294)
(-1.96634e-10 8.80334e-09 0.000191108)
(-2.09285e-10 8.42074e-09 0.000190948)
(-2.1733e-10 8.06965e-09 0.000190808)
(-2.22166e-10 7.74005e-09 0.000190683)
(-2.24502e-10 7.43523e-09 0.000190572)
(-2.25015e-10 7.15469e-09 0.000190473)
(-2.2425e-10 6.89485e-09 0.000190383)
(-2.22566e-10 6.65235e-09 0.0001903)
(-2.2021e-10 6.42537e-09 0.000190225)
(-2.17392e-10 6.21246e-09 0.000190156)
(-2.14264e-10 6.01238e-09 0.000190092)
(-2.10883e-10 5.82371e-09 0.000190032)
(-2.07325e-10 5.64566e-09 0.000189977)
(-2.03712e-10 5.47722e-09 0.000189925)
(-2.00114e-10 5.31773e-09 0.000189877)
(-1.96435e-10 5.16599e-09 0.000189831)
(-1.92618e-10 5.02186e-09 0.000189789)
(-1.88178e-10 4.88489e-09 0.000189748)
(-1.8573e-10 4.75423e-09 0.00018971)
(-1.83277e-10 4.62915e-09 0.000189674)
(-1.77538e-10 4.50999e-09 0.00018964)
(-1.73588e-10 4.39666e-09 0.000189608)
(-1.71812e-10 4.28895e-09 0.000189577)
(-1.69652e-10 4.18251e-09 0.000189547)
(-1.64375e-10 4.07831e-09 0.000189519)
(-1.5958e-10 3.98645e-09 0.000189493)
(-1.60132e-10 3.89976e-09 0.000189467)
(-1.62238e-10 3.80633e-09 0.000189443)
(-1.53436e-10 3.71276e-09 0.000189419)
(-1.40646e-10 3.63386e-09 0.000189397)
(-1.52563e-10 3.57355e-09 0.000189376)
(-1.45714e-10 3.48718e-09 0.000189355)
(-1.35087e-10 3.37196e-09 0.000189335)
(-1.38384e-10 3.30551e-09 0.000189316)
(-1.48588e-10 3.28053e-09 0.000189298)
(-1.11981e-10 3.25225e-09 0.00018928)
(-1.09595e-10 2.99629e-09 0.000189263)
(-1.9411e-10 3.35638e-09 0.000189247)
(-9.95487e-11 2.31803e-09 0.00018923)
(-1.92481e-10 5.45622e-09 0.000189221)
(3.00623e-11 9.53007e-10 0.000189195)
(3.81709e-06 2.65162e-07 0.000626448)
(2.95999e-08 7.62813e-08 0.000634649)
(6.18189e-08 3.78012e-08 0.000621439)
(2.00931e-08 3.96925e-08 0.000616396)
(7.17323e-09 3.59811e-08 0.000614901)
(5.9328e-09 3.38075e-08 0.000613864)
(5.40595e-09 3.26296e-08 0.000612824)
(4.26494e-09 3.10313e-08 0.00061194)
(3.28079e-09 2.9321e-08 0.000611236)
(2.6453e-09 2.78817e-08 0.000610655)
(2.21138e-09 2.66707e-08 0.000610154)
(1.87027e-09 2.55627e-08 0.000609713)
(1.58991e-09 2.45237e-08 0.000609323)
(1.36134e-09 2.35623e-08 0.000608976)
(1.17492e-09 2.26771e-08 0.000608663)
(1.02071e-09 2.18572e-08 0.00060838)
(8.91217e-10 2.1092e-08 0.000608122)
(7.81358e-10 2.03758e-08 0.000607886)
(6.87477e-10 1.97037e-08 0.000607668)
(6.06612e-10 1.90721e-08 0.000607467)
(5.36632e-10 1.84764e-08 0.00060728)
(4.75715e-10 1.79142e-08 0.000607106)
(4.22358e-10 1.73821e-08 0.000606944)
(3.75214e-10 1.68783e-08 0.000606792)
(3.33649e-10 1.63989e-08 0.000606649)
(2.96886e-10 1.59434e-08 0.000606515)
(2.65005e-10 1.55104e-08 0.000606388)
(2.34996e-10 1.50974e-08 0.000606268)
(2.07314e-10 1.47024e-08 0.000606155)
(1.84489e-10 1.43251e-08 0.000606047)
(1.654e-10 1.39663e-08 0.000605945)
(1.45465e-10 1.36255e-08 0.000605848)
(1.25018e-10 1.32889e-08 0.000605756)
(1.11264e-10 1.29617e-08 0.000605668)
(1.02393e-10 1.26709e-08 0.000605584)
(8.30217e-11 1.23911e-08 0.000605504)
(6.82551e-11 1.20977e-08 0.000605427)
(2.71806e-11 1.18001e-08 0.000605353)
(9.94407e-11 1.15579e-08 0.000605283)
(3.59671e-11 1.13516e-08 0.000605216)
(2.39323e-11 1.10913e-08 0.000605151)
(3.27343e-11 1.07354e-08 0.000605088)
(3.6874e-11 1.05169e-08 0.000605029)
(-1.15748e-11 1.04188e-08 0.000604971)
(7.15836e-12 1.0349e-08 0.000604915)
(7.88163e-11 9.5748e-09 0.000604863)
(-6.25714e-11 1.06143e-08 0.000604811)
(-1.41197e-11 7.41096e-09 0.000604759)
(-1.89861e-10 1.68355e-08 0.000604727)
(2.76644e-10 3.48703e-09 0.000604647)
(6.60291e-06 4.58528e-07 0.00113968)
(9.13541e-08 1.34132e-07 0.00115365)
(2.03892e-07 7.42768e-08 0.0011321)
(7.32808e-08 7.26206e-08 0.00112307)
(2.81943e-08 6.50712e-08 0.0011203)
(2.30284e-08 6.10847e-08 0.00111845)
(2.11198e-08 5.8953e-08 0.00111662)
(1.72076e-08 5.60827e-08 0.00111505)
(1.37407e-08 5.30008e-08 0.00111379)
(1.14464e-08 5.03961e-08 0.00111275)
(9.85903e-09 4.82064e-08 0.00111186)
(8.60123e-09 4.62092e-08 0.00111107)
(7.55663e-09 4.43385e-08 0.00111038)
(6.69399e-09 4.26071e-08 0.00110975)
(5.98106e-09 4.10125e-08 0.0011092)
(5.38347e-09 3.95355e-08 0.00110869)
(4.87491e-09 3.81572e-08 0.00110823)
(4.43747e-09 3.68668e-08 0.0011078)
(4.05826e-09 3.56561e-08 0.00110741)
(3.72703e-09 3.45179e-08 0.00110705)
(3.43604e-09 3.34444e-08 0.00110672)
(3.17882e-09 3.24309e-08 0.00110641)
(2.94999e-09 3.14718e-08 0.00110612)
(2.74505e-09 3.05633e-08 0.00110584)
(2.56127e-09 2.96988e-08 0.00110559)
(2.39601e-09 2.88774e-08 0.00110535)
(2.24868e-09 2.80962e-08 0.00110512)
(2.10954e-09 2.73511e-08 0.00110491)
(1.98149e-09 2.66382e-08 0.0011047)
(1.8727e-09 2.59575e-08 0.00110451)
(1.77272e-09 2.53097e-08 0.00110433)
(1.67329e-09 2.46943e-08 0.00110415)
(1.57845e-09 2.40876e-08 0.00110399)
(1.50309e-09 2.34967e-08 0.00110383)
(1.43885e-09 2.29689e-08 0.00110368)
(1.35361e-09 2.24648e-08 0.00110354)
(1.27458e-09 2.1937e-08 0.0011034)
(1.18057e-09 2.14021e-08 0.00110327)
(1.25821e-09 2.09574e-08 0.00110314)
(1.10476e-09 2.05853e-08 0.00110302)
(1.05299e-09 2.01191e-08 0.0011029)
(1.04166e-09 1.94849e-08 0.00110279)
(1.00537e-09 1.90792e-08 0.00110268)
(8.93088e-10 1.88926e-08 0.00110258)
(9.42971e-10 1.87674e-08 0.00110248)
(9.93606e-10 1.74104e-08 0.00110239)
(7.08294e-10 1.91755e-08 0.00110229)
(6.40362e-10 1.36503e-08 0.0011022)
(8.79955e-10 2.9768e-08 0.00110214)
(1.05111e-09 7.24588e-09 0.001102)
(9.51745e-06 6.61039e-07 0.00175156)
(1.96647e-07 1.9709e-07 0.00177168)
(4.67388e-07 1.23303e-07 0.0017427)
(1.8079e-07 1.1255e-07 0.00172915)
(7.18518e-08 9.93789e-08 0.0017248)
(5.76821e-08 9.31541e-08 0.00172202)
(5.29365e-08 8.9898e-08 0.0017193)
(4.37043e-08 8.55554e-08 0.00171696)
(3.53686e-08 8.08721e-08 0.00171507)
(2.97641e-08 7.68934e-08 0.00171352)
(2.5863e-08 7.3551e-08 0.00171217)
(2.27672e-08 7.05139e-08 0.00171099)
(2.01871e-08 6.76733e-08 0.00170994)
(1.80454e-08 6.50431e-08 0.00170901)
(1.62661e-08 6.26197e-08 0.00170817)
(1.47674e-08 6.0375e-08 0.0017074)
(1.34859e-08 5.82806e-08 0.00170671)
(1.23782e-08 5.63197e-08 0.00170607)
(1.14134e-08 5.44793e-08 0.00170548)
(1.05666e-08 5.27491e-08 0.00170494)
(9.81905e-09 5.11168e-08 0.00170444)
(9.1549e-09 4.95754e-08 0.00170397)
(8.56129e-09 4.81165e-08 0.00170353)
(8.02753e-09 4.67343e-08 0.00170312)
(7.54634e-09 4.5419e-08 0.00170273)
(7.11107e-09 4.41687e-08 0.00170237)
(6.71853e-09 4.29795e-08 0.00170202)
(6.35235e-09 4.18452e-08 0.0017017)
(6.01525e-09 4.07597e-08 0.00170139)
(5.71763e-09 3.97227e-08 0.0017011)
(5.44354e-09 3.87356e-08 0.00170083)
(5.17902e-09 3.77976e-08 0.00170056)
(4.9289e-09 3.6875e-08 0.00170031)
(4.71531e-09 3.59751e-08 0.00170007)
(4.52539e-09 3.51664e-08 0.00169985)
(4.30918e-09 3.43972e-08 0.00169963)
(4.10813e-09 3.35974e-08 0.00169942)
(3.88358e-09 3.27847e-08 0.00169922)
(3.93563e-09 3.20986e-08 0.00169903)
(3.63328e-09 3.15249e-08 0.00169885)
(3.48902e-09 3.08284e-08 0.00169867)
(3.40757e-09 2.98788e-08 0.0016985)
(3.29838e-09 2.9237e-08 0.00169834)
(3.08304e-09 2.8927e-08 0.00169819)
(3.09664e-09 2.87507e-08 0.00169803)
(3.10786e-09 2.67692e-08 0.00169789)
(2.73609e-09 2.92336e-08 0.00169775)
(2.23617e-09 2.12358e-08 0.00169761)
(3.3979e-09 4.41967e-08 0.00169752)
(2.59164e-09 1.26823e-08 0.00169731)
(1.2478e-05 8.67201e-07 0.00247977)
(3.50022e-07 2.62326e-07 0.00250649)
(8.85456e-07 1.87424e-07 0.00247181)
(3.68911e-07 1.61011e-07 0.00245333)
(1.50268e-07 1.39635e-07 0.00244705)
(1.18065e-07 1.30599e-07 0.00244321)
(1.08155e-07 1.26031e-07 0.00243953)
(9.01001e-08 1.20016e-07 0.00243633)
(7.35081e-08 1.13491e-07 0.00243375)
(6.21811e-08 1.0791e-07 0.0024316)
(5.42606e-08 1.03223e-07 0.00242975)
(4.79787e-08 9.89817e-08 0.00242813)
(4.27357e-08 9.50213e-08 0.00242668)
(3.83694e-08 9.13522e-08 0.0024254)
(3.473e-08 8.79696e-08 0.00242424)
(3.16561e-08 8.48359e-08 0.00242318)
(2.90209e-08 8.19121e-08 0.00242222)
(2.67374e-08 7.91742e-08 0.00242134)
(2.4743e-08 7.66039e-08 0.00242053)
(2.29884e-08 7.41866e-08 0.00241978)
(2.14353e-08 7.19058e-08 0.00241908)
(2.00519e-08 6.97513e-08 0.00241843)
(1.88124e-08 6.77113e-08 0.00241782)
(1.76957e-08 6.57782e-08 0.00241725)
(1.66863e-08 6.39385e-08 0.00241672)
(1.57706e-08 6.21889e-08 0.00241622)
(1.49402e-08 6.05243e-08 0.00241574)
(1.41698e-08 5.89363e-08 0.00241529)
(1.34606e-08 5.74167e-08 0.00241487)
(1.28237e-08 5.5964e-08 0.00241446)
(1.22358e-08 5.45801e-08 0.00241408)
(1.1676e-08 5.32652e-08 0.00241372)
(1.11496e-08 5.19752e-08 0.00241337)
(1.06853e-08 5.07157e-08 0.00241304)
(1.02643e-08 4.95749e-08 0.00241273)
(9.81765e-09 4.84935e-08 0.00241242)
(9.4007e-09 4.73801e-08 0.00241214)
(8.96096e-09 4.62454e-08 0.00241186)
(8.90109e-09 4.52701e-08 0.0024116)
(8.37523e-09 4.44514e-08 0.00241134)
(8.06386e-09 4.35027e-08 0.0024111)
(7.83819e-09 4.22012e-08 0.00241086)
(7.59258e-09 4.12595e-08 0.00241064)
(7.22204e-09 4.07771e-08 0.00241043)
(7.13717e-09 4.05623e-08 0.00241021)
(7.015e-09 3.79355e-08 0.00241002)
(6.6023e-09 4.10021e-08 0.00240982)
(5.32992e-09 3.04663e-08 0.00240963)
(8.17077e-09 6.00329e-08 0.0024095)
(5.32951e-09 2.03962e-08 0.00240921)
(1.5358e-05 1.06954e-06 0.00334523)
(5.48399e-07 3.24769e-07 0.00337905)
(1.48729e-06 2.68316e-07 0.00334136)
(6.72716e-07 2.19837e-07 0.00331787)
(2.8125e-07 1.86589e-07 0.00330928)
(2.15492e-07 1.73942e-07 0.00330424)
(1.96619e-07 1.67866e-07 0.00329954)
(1.65086e-07 1.59999e-07 0.00329544)
(1.35579e-07 1.514e-07 0.00329208)
(1.15091e-07 1.43982e-07 0.0032893)
(1.00697e-07 1.37749e-07 0.00328689)
(8.92974e-08 1.32132e-07 0.00328477)
(7.97785e-08 1.26896e-07 0.00328289)
(7.18302e-08 1.22042e-07 0.00328121)
(6.51876e-08 1.17563e-07 0.0032797)
(5.95655e-08 1.13412e-07 0.00327832)
(5.47372e-08 1.09538e-07 0.00327707)
(5.05457e-08 1.05909e-07 0.00327591)
(4.6878e-08 1.02501e-07 0.00327485)
(4.36459e-08 9.92943e-08 0.00327387)
(4.07797e-08 9.62675e-08 0.00327295)
(3.82224e-08 9.34069e-08 0.0032721)
(3.59275e-08 9.06974e-08 0.00327131)
(3.3857e-08 8.81286e-08 0.00327056)
(3.19823e-08 8.56836e-08 0.00326986)
(3.02786e-08 8.33571e-08 0.0032692)
(2.87282e-08 8.11425e-08 0.00326858)
(2.72944e-08 7.90294e-08 0.00326799)
(2.59744e-08 7.70073e-08 0.00326743)
(2.47768e-08 7.50728e-08 0.0032669)
(2.367e-08 7.32277e-08 0.0032664)
(2.26239e-08 7.14747e-08 0.00326592)
(2.16435e-08 6.97606e-08 0.00326547)
(2.07631e-08 6.80854e-08 0.00326503)
(1.99552e-08 6.65535e-08 0.00326462)
(1.91312e-08 6.51053e-08 0.00326422)
(1.83625e-08 6.36332e-08 0.00326384)
(1.75726e-08 6.21287e-08 0.00326348)
(1.72898e-08 6.08082e-08 0.00326313)
(1.6419e-08 5.96898e-08 0.0032628)
(1.58327e-08 5.84697e-08 0.00326248)
(1.53589e-08 5.67862e-08 0.00326217)
(1.48827e-08 5.54653e-08 0.00326188)
(1.42702e-08 5.47369e-08 0.0032616)
(1.39956e-08 5.45013e-08 0.00326132)
(1.36386e-08 5.1253e-08 0.00326106)
(1.32159e-08 5.4735e-08 0.0032608)
(1.06901e-08 4.17067e-08 0.00326056)
(1.62165e-08 7.71152e-08 0.00326037)
(9.94292e-09 3.10703e-08 0.00326)
(1.79909e-05 1.25931e-06 0.00437245)
(7.74483e-07 3.76508e-07 0.00441374)
(2.28498e-06 3.65183e-07 0.00437668)
(1.13435e-06 2.90844e-07 0.00434876)
(4.89812e-07 2.40849e-07 0.00433754)
(3.65159e-07 2.23454e-07 0.00433118)
(3.31009e-07 2.15689e-07 0.00432546)
(2.80043e-07 2.05849e-07 0.00432042)
(2.31486e-07 1.94992e-07 0.00431626)
(1.97101e-07 1.85526e-07 0.00431279)
(1.72798e-07 1.77557e-07 0.00430979)
(1.53589e-07 1.70403e-07 0.00430715)
(1.37549e-07 1.63747e-07 0.0043048)
(1.24122e-07 1.5757e-07 0.0043027)
(1.12872e-07 1.51861e-07 0.0043008)
(1.03332e-07 1.46566e-07 0.00429907)
(9.51262e-08 1.41622e-07 0.0042975)
(8.79916e-08 1.36989e-07 0.00429605)
(8.1739e-08 1.32634e-07 0.00429471)
(7.62208e-08 1.28533e-07 0.00429348)
(7.13201e-08 1.2466e-07 0.00429233)
(6.69416e-08 1.20997e-07 0.00429126)
(6.30072e-08 1.17525e-07 0.00429025)
(5.94533e-08 1.14232e-07 0.00428931)
(5.62314e-08 1.11096e-07 0.00428843)
(5.32994e-08 1.08111e-07 0.0042876)
(5.06248e-08 1.05266e-07 0.00428681)
(4.81555e-08 1.02552e-07 0.00428607)
(4.58813e-08 9.99538e-08 0.00428536)
(4.38057e-08 9.7466e-08 0.0042847)
(4.18851e-08 9.50898e-08 0.00428406)
(4.00768e-08 9.28316e-08 0.00428346)
(3.8386e-08 9.06317e-08 0.00428289)
(3.6851e-08 8.84812e-08 0.00428234)
(3.54322e-08 8.64925e-08 0.00428181)
(3.40186e-08 8.46146e-08 0.00428132)
(3.2697e-08 8.27356e-08 0.00428084)
(3.13783e-08 8.08126e-08 0.00428038)
(3.06893e-08 7.90824e-08 0.00427994)
(2.93079e-08 7.75954e-08 0.00427952)
(2.82855e-08 7.6087e-08 0.00427912)
(2.74207e-08 7.40044e-08 0.00427873)
(2.65729e-08 7.22119e-08 0.00427836)
(2.55928e-08 7.1133e-08 0.004278)
(2.50039e-08 7.08927e-08 0.00427765)
(2.4254e-08 6.71068e-08 0.00427732)
(2.38335e-08 7.07161e-08 0.004277)
(1.94787e-08 5.53879e-08 0.00427669)
(2.89684e-08 9.52411e-08 0.00427644)
(1.74446e-08 4.53606e-08 0.00427599)
(2.01891e-05 1.42879e-06 0.00559021)
(9.94256e-07 4.07615e-07 0.00563876)
(3.2502e-06 4.72385e-07 0.0056066)
(1.79437e-06 3.74929e-07 0.0055759)
(8.07939e-07 3.02597e-07 0.00556201)
(5.86381e-07 2.78891e-07 0.00555425)
(5.26502e-07 2.69312e-07 0.00554756)
(4.48789e-07 2.57501e-07 0.00554164)
(3.73606e-07 2.44312e-07 0.00553669)
(3.19133e-07 2.32673e-07 0.00553254)
(2.80315e-07 2.22838e-07 0.00552894)
(2.4969e-07 2.14032e-07 0.00552577)
(2.24124e-07 2.05851e-07 0.00552294)
(2.02669e-07 1.98245e-07 0.0055204)
(1.8464e-07 1.91201e-07 0.00551811)
(1.6932e-07 1.84657e-07 0.00551602)
(1.56121e-07 1.78542e-07 0.00551411)
(1.44628e-07 1.72803e-07 0.00551235)
(1.3454e-07 1.67403e-07 0.00551073)
(1.25623e-07 1.62313e-07 0.00550923)
(1.17694e-07 1.57501e-07 0.00550783)
(1.10599e-07 1.52944e-07 0.00550652)
(1.04216e-07 1.48622e-07 0.0055053)
(9.84444e-08 1.44517e-07 0.00550416)
(9.32053e-08 1.40607e-07 0.00550308)
(8.84319e-08 1.36881e-07 0.00550207)
(8.40696e-08 1.33327e-07 0.00550111)
(8.0045e-08 1.29933e-07 0.0055002)
(7.63366e-08 1.26685e-07 0.00549934)
(7.2938e-08 1.23571e-07 0.00549853)
(6.97904e-08 1.20591e-07 0.00549775)
(6.6833e-08 1.17757e-07 0.00549702)
(6.40705e-08 1.15007e-07 0.00549631)
(6.15462e-08 1.12321e-07 0.00549564)
(5.92015e-08 1.09805e-07 0.00549501)
(5.68971e-08 1.07427e-07 0.00549439)
(5.47408e-08 1.05091e-07 0.00549381)
(5.26315e-08 1.02702e-07 0.00549325)
(5.12992e-08 1.00492e-07 0.00549271)
(4.9154e-08 9.85515e-08 0.0054922)
(4.7472e-08 9.67385e-08 0.00549171)
(4.60208e-08 9.42597e-08 0.00549123)
(4.45977e-08 9.18966e-08 0.00549078)
(4.30468e-08 9.03241e-08 0.00549034)
(4.19867e-08 9.00822e-08 0.00548991)
(4.06605e-08 8.59232e-08 0.00548951)
(4.01695e-08 8.92728e-08 0.00548911)
(3.33226e-08 7.19934e-08 0.00548874)
(4.83078e-08 1.14295e-07 0.00548842)
(2.93189e-08 6.37236e-08 0.00548788)
(2.17704e-05 1.57336e-06 0.00703287)
(1.16792e-06 4.095e-07 0.0070873)
(4.28487e-06 5.77194e-07 0.00706416)
(2.67141e-06 4.70221e-07 0.00703358)
(1.26955e-06 3.70926e-07 0.00701767)
(9.01424e-07 3.39028e-07 0.00700863)
(7.99506e-07 3.27647e-07 0.00700114)
(6.86354e-07 3.14093e-07 0.00699451)
(5.76013e-07 2.98715e-07 0.00698888)
(4.93986e-07 2.84965e-07 0.00698411)
(4.34862e-07 2.73277e-07 0.00697997)
(3.8825e-07 2.62818e-07 0.0069763)
(3.4935e-07 2.531e-07 0.00697302)
(3.16611e-07 2.44041e-07 0.00697007)
(2.89009e-07 2.35624e-07 0.0069674)
(2.65493e-07 2.27786e-07 0.00696497)
(2.45196e-07 2.20445e-07 0.00696273)
(2.27489e-07 2.13543e-07 0.00696068)
(2.11919e-07 2.07036e-07 0.00695877)
(1.98135e-07 2.00891e-07 0.00695701)
(1.85856e-07 1.95072e-07 0.00695536)
(1.74855e-07 1.89553e-07 0.00695383)
(1.64944e-07 1.84309e-07 0.00695239)
(1.5597e-07 1.79323e-07 0.00695104)
(1.47814e-07 1.74569e-07 0.00694977)
(1.40374e-07 1.70031e-07 0.00694857)
(1.33564e-07 1.65697e-07 0.00694744)
(1.27281e-07 1.61555e-07 0.00694636)
(1.21487e-07 1.57588e-07 0.00694535)
(1.16162e-07 1.5378e-07 0.00694438)
(1.11226e-07 1.50128e-07 0.00694347)
(1.06591e-07 1.4665e-07 0.0069426)
(1.02263e-07 1.43289e-07 0.00694177)
(9.82927e-08 1.40011e-07 0.00694097)
(9.45927e-08 1.36898e-07 0.00694021)
(9.09857e-08 1.33946e-07 0.00693949)
(8.75976e-08 1.31102e-07 0.0069388)
(8.43563e-08 1.28208e-07 0.00693814)
(8.20381e-08 1.25447e-07 0.0069375)
(7.87906e-08 1.22953e-07 0.00693689)
(7.61215e-08 1.20814e-07 0.00693631)
(7.38292e-08 1.17967e-07 0.00693574)
(7.15477e-08 1.1494e-07 0.0069352)
(6.91312e-08 1.12697e-07 0.00693469)
(6.74039e-08 1.12435e-07 0.00693418)
(6.52507e-08 1.08142e-07 0.0069337)
(6.4502e-08 1.10773e-07 0.00693323)
(5.44737e-08 9.20172e-08 0.0069328)
(7.67024e-08 1.34456e-07 0.0069324)
(4.76993e-08 8.62409e-08 0.00693177)
(2.25925e-05 1.69239e-06 0.00874121)
(1.28222e-06 3.81453e-07 0.00879845)
(5.20232e-06 6.60031e-07 0.00878698)
(3.72443e-06 5.69365e-07 0.00876034)
(1.89366e-06 4.4246e-07 0.00874413)
(1.32913e-06 4.00833e-07 0.00873438)
(1.16386e-06 3.88016e-07 0.00872646)
(1.0055e-06 3.73321e-07 0.00871945)
(8.51686e-07 3.56251e-07 0.00871341)
(7.34302e-07 3.40784e-07 0.00870823)
(6.48381e-07 3.27544e-07 0.0087037)
(5.80535e-07 3.15657e-07 0.00869966)
(5.23889e-07 3.04578e-07 0.00869604)
(4.76054e-07 2.94206e-07 0.00869276)
(4.35555e-07 2.84521e-07 0.00868978)
(4.00937e-07 2.75463e-07 0.00868705)
(3.70979e-07 2.66948e-07 0.00868455)
(3.44784e-07 2.58916e-07 0.00868223)
(3.21699e-07 2.51319e-07 0.00868009)
(3.01218e-07 2.44123e-07 0.00867809)
(2.82939e-07 2.37291e-07 0.00867623)
(2.66531e-07 2.30795e-07 0.00867449)
(2.51725e-07 2.24608e-07 0.00867286)
(2.38298e-07 2.18712e-07 0.00867133)
(2.26075e-07 2.13079e-07 0.00866988)
(2.1491e-07 2.07693e-07 0.00866852)
(2.04673e-07 2.02538e-07 0.00866723)
(1.95224e-07 1.97602e-07 0.008666)
(1.865e-07 1.92872e-07 0.00866485)
(1.78463e-07 1.88324e-07 0.00866375)
(1.71007e-07 1.83949e-07 0.0086627)
(1.64006e-07 1.79773e-07 0.0086617)
(1.57462e-07 1.75753e-07 0.00866075)
(1.51445e-07 1.71841e-07 0.00865984)
(1.45828e-07 1.68076e-07 0.00865898)
(1.40372e-07 1.64481e-07 0.00865815)
(1.35229e-07 1.61084e-07 0.00865736)
(1.30394e-07 1.57655e-07 0.0086566)
(1.26655e-07 1.54283e-07 0.00865587)
(1.21839e-07 1.51134e-07 0.00865517)
(1.17754e-07 1.48641e-07 0.0086545)
(1.14287e-07 1.45475e-07 0.00865386)
(1.10767e-07 1.41711e-07 0.00865324)
(1.07052e-07 1.3861e-07 0.00865264)
(1.04417e-07 1.38276e-07 0.00865207)
(1.01163e-07 1.34139e-07 0.00865152)
(9.97594e-08 1.35583e-07 0.00865098)
(8.59108e-08 1.15866e-07 0.00865049)
(1.17294e-07 1.56382e-07 0.00865002)
(7.54678e-08 1.12512e-07 0.0086493)
(2.25874e-05 1.78781e-06 0.0107634)
(1.39703e-06 3.37893e-07 0.010819)
(5.7622e-06 7.013e-07 0.0108191)
(4.80903e-06 6.5848e-07 0.0107998)
(2.64953e-06 5.09752e-07 0.0107859)
(1.86646e-06 4.58423e-07 0.0107768)
(1.62114e-06 4.45388e-07 0.0107692)
(1.40947e-06 4.30731e-07 0.0107625)
(1.20617e-06 4.12946e-07 0.0107565)
(1.04745e-06 3.96638e-07 0.0107513)
(9.29112e-07 3.82597e-07 0.0107467)
(8.35135e-07 3.69894e-07 0.0107425)
(7.56483e-07 3.57956e-07 0.0107388)
(6.89762e-07 3.46689e-07 0.0107353)
(6.32967e-07 3.36089e-07 0.0107322)
(5.84198e-07 3.26104e-07 0.0107293)
(5.41836e-07 3.1666e-07 0.0107267)
(5.04673e-07 3.07701e-07 0.0107242)
(4.71823e-07 2.99183e-07 0.0107219)
(4.42594e-07 2.91076e-07 0.0107198)
(4.16438e-07 2.83345e-07 0.0107178)
(3.92903e-07 2.75964e-07 0.0107159)
(3.71616e-07 2.68907e-07 0.0107141)
(3.52272e-07 2.62159e-07 0.0107125)
(3.34629e-07 2.55693e-07 0.0107109)
(3.1848e-07 2.49491e-07 0.0107094)
(3.03648e-07 2.43537e-07 0.010708)
(2.89941e-07 2.37822e-07 0.0107067)
(2.77263e-07 2.32335e-07 0.0107054)
(2.65558e-07 2.27047e-07 0.0107042)
(2.54691e-07 2.21942e-07 0.0107031)
(2.44479e-07 2.17053e-07 0.010702)
(2.34912e-07 2.12358e-07 0.010701)
(2.26099e-07 2.07801e-07 0.0107)
(2.17879e-07 2.03362e-07 0.010699)
(2.09893e-07 1.99083e-07 0.0106981)
(2.02327e-07 1.95105e-07 0.0106972)
(1.95332e-07 1.9114e-07 0.0106964)
(1.89608e-07 1.87117e-07 0.0106956)
(1.82657e-07 1.83235e-07 0.0106949)
(1.7658e-07 1.80355e-07 0.0106941)
(1.71529e-07 1.76934e-07 0.0106934)
(1.6632e-07 1.72396e-07 0.0106927)
(1.60699e-07 1.68277e-07 0.0106921)
(1.56815e-07 1.67813e-07 0.0106914)
(1.52197e-07 1.64108e-07 0.0106909)
(1.49576e-07 1.63963e-07 0.0106903)
(1.31259e-07 1.43679e-07 0.0106897)
(1.73791e-07 1.81234e-07 0.0106892)
(1.16233e-07 1.41851e-07 0.0106884)
(2.17773e-05 1.86094e-06 0.013155)
(1.65998e-06 3.08568e-07 0.0132049)
(5.798e-06 6.95151e-07 0.0132134)
(5.68247e-06 7.22915e-07 0.0132024)
(3.4162e-06 5.62184e-07 0.0131933)
(2.45294e-06 5.02813e-07 0.0131868)
(2.13817e-06 4.92125e-07 0.0131809)
(1.87754e-06 4.79518e-07 0.0131752)
(1.62579e-06 4.62469e-07 0.0131701)
(1.42522e-06 4.46669e-07 0.0131655)
(1.27291e-06 4.33095e-07 0.0131613)
(1.15071e-06 4.20686e-07 0.0131575)
(1.04776e-06 4.08836e-07 0.013154)
(9.59808e-07 3.97491e-07 0.0131507)
(8.84392e-07 3.86688e-07 0.0131477)
(8.19209e-07 3.76398e-07 0.013145)
(7.62274e-07 3.66567e-07 0.0131424)
(7.12084e-07 3.57152e-07 0.01314)
(6.67518e-07 3.48125e-07 0.0131377)
(6.27701e-07 3.39466e-07 0.0131356)
(5.91933e-07 3.31151e-07 0.0131336)
(5.59637e-07 3.23161e-07 0.0131317)
(5.30333e-07 3.15477e-07 0.0131299)
(5.03624e-07 3.08086e-07 0.0131283)
(4.79192e-07 3.0097e-07 0.0131267)
(4.56773e-07 2.94114e-07 0.0131252)
(4.3613e-07 2.87501e-07 0.0131238)
(4.17017e-07 2.81126e-07 0.0131224)
(3.99294e-07 2.74987e-07 0.0131211)
(3.82889e-07 2.6905e-07 0.0131199)
(3.67641e-07 2.63293e-07 0.0131187)
(3.53293e-07 2.57754e-07 0.0131176)
(3.39807e-07 2.52436e-07 0.0131165)
(3.27361e-07 2.47285e-07 0.0131155)
(3.15764e-07 2.42215e-07 0.0131145)
(3.04483e-07 2.37274e-07 0.0131136)
(2.93731e-07 2.32732e-07 0.0131127)
(2.83911e-07 2.28268e-07 0.0131119)
(2.75569e-07 2.23607e-07 0.013111)
(2.65829e-07 2.18969e-07 0.0131103)
(2.57078e-07 2.15689e-07 0.0131095)
(2.49957e-07 2.12084e-07 0.0131088)
(2.42553e-07 2.06783e-07 0.0131081)
(2.34287e-07 2.01566e-07 0.0131074)
(2.28715e-07 2.00941e-07 0.0131068)
(2.22503e-07 1.97871e-07 0.0131061)
(2.17967e-07 1.95891e-07 0.0131055)
(1.9448e-07 1.75166e-07 0.013105)
(2.50306e-07 2.10282e-07 0.0131044)
(1.74051e-07 1.73625e-07 0.0131036)
(2.02609e-05 1.90951e-06 0.0159785)
(2.22509e-06 3.24756e-07 0.0160203)
(5.37079e-06 6.58032e-07 0.016033)
(6.13425e-06 7.60391e-07 0.0160283)
(4.00684e-06 5.94088e-07 0.0160244)
(2.94839e-06 5.2575e-07 0.0160218)
(2.61506e-06 5.1979e-07 0.0160187)
(2.34049e-06 5.11828e-07 0.0160153)
(2.05923e-06 4.97149e-07 0.016012)
(1.82786e-06 4.83281e-07 0.0160088)
(1.64887e-06 4.71647e-07 0.0160057)
(1.50319e-06 4.60955e-07 0.0160029)
(1.37893e-06 4.50494e-07 0.0160002)
(1.27153e-06 4.40249e-07 0.0159976)
(1.17844e-06 4.30313e-07 0.0159952)
(1.09721e-06 4.20693e-07 0.0159929)
(1.02566e-06 4.11356e-07 0.0159907)
(9.62116e-07 4.02283e-07 0.0159887)
(9.05307e-07 3.93467e-07 0.0159867)
(8.54237e-07 3.84908e-07 0.0159849)
(8.08096e-07 3.76598e-07 0.0159832)
(7.66217e-07 3.68532e-07 0.0159815)
(7.28036e-07 3.607e-07 0.0159799)
(6.93079e-07 3.53103e-07 0.0159784)
(6.60969e-07 3.45732e-07 0.015977)
(6.3139e-07 3.38578e-07 0.0159757)
(6.04056e-07 3.31629e-07 0.0159744)
(5.7867e-07 3.24888e-07 0.0159732)
(5.5505e-07 3.18361e-07 0.015972)
(5.33109e-07 3.12016e-07 0.0159709)
(5.12672e-07 3.05827e-07 0.0159698)
(4.93405e-07 2.99832e-07 0.0159688)
(4.75218e-07 2.94064e-07 0.0159678)
(4.58384e-07 2.88481e-07 0.0159669)
(4.42714e-07 2.82933e-07 0.015966)
(4.27439e-07 2.77461e-07 0.0159651)
(4.12779e-07 2.72465e-07 0.0159643)
(3.995e-07 2.6762e-07 0.0159635)
(3.87917e-07 2.62419e-07 0.0159627)
(3.74772e-07 2.57106e-07 0.015962)
(3.62646e-07 2.53469e-07 0.0159613)
(3.52974e-07 2.49783e-07 0.0159606)
(3.4292e-07 2.43796e-07 0.01596)
(3.3121e-07 2.37507e-07 0.0159594)
(3.2337e-07 2.36783e-07 0.0159588)
(3.15482e-07 2.34489e-07 0.0159582)
(3.08495e-07 2.30633e-07 0.0159576)
(2.78865e-07 2.09236e-07 0.0159571)
(3.4998e-07 2.43892e-07 0.0159566)
(2.5233e-07 2.07247e-07 0.0159559)
(1.81905e-05 1.92975e-06 0.0193023)
(3.10536e-06 4.01445e-07 0.0193358)
(4.7451e-06 6.1666e-07 0.0193497)
(6.15849e-06 7.85962e-07 0.0193483)
(4.32165e-06 6.16647e-07 0.0193477)
(3.21848e-06 5.31113e-07 0.0193483)
(2.90863e-06 5.27144e-07 0.0193483)
(2.67333e-06 5.24391e-07 0.0193477)
(2.40341e-06 5.12496e-07 0.0193467)
(2.16945e-06 5.00972e-07 0.0193455)
(1.98459e-06 4.92023e-07 0.0193443)
(1.83125e-06 4.83999e-07 0.019343)
(1.69768e-06 4.75944e-07 0.0193417)
(1.58004e-06 4.67836e-07 0.0193403)
(1.47641e-06 4.59804e-07 0.019339)
(1.38471e-06 4.51871e-07 0.0193376)
(1.30291e-06 4.44015e-07 0.0193364)
(1.22943e-06 4.36229e-07 0.0193351)
(1.16307e-06 4.28525e-07 0.0193339)
(1.10284e-06 4.20916e-07 0.0193327)
(1.04796e-06 4.13412e-07 0.0193315)
(9.97748e-07 4.06021e-07 0.0193304)
(9.5164e-07 3.98748e-07 0.0193294)
(9.09139e-07 3.91603e-07 0.0193284)
(8.69851e-07 3.84591e-07 0.0193274)
(8.33451e-07 3.77713e-07 0.0193264)
(7.99629e-07 3.70963e-07 0.0193255)
(7.68065e-07 3.64353e-07 0.0193246)
(7.38549e-07 3.57899e-07 0.0193238)
(7.10993e-07 3.51579e-07 0.019323)
(6.85232e-07 3.4536e-07 0.0193222)
(6.60872e-07 3.39285e-07 0.0193215)
(6.37751e-07 3.33411e-07 0.0193207)
(6.1625e-07 3.2771e-07 0.0193201)
(5.96239e-07 3.21991e-07 0.0193194)
(5.76687e-07 3.16278e-07 0.0193188)
(5.57753e-07 3.11075e-07 0.0193182)
(5.40653e-07 3.0609e-07 0.0193176)
(5.2552e-07 3.00582e-07 0.019317)
(5.08667e-07 2.94819e-07 0.0193165)
(4.92658e-07 2.90981e-07 0.0193159)
(4.80056e-07 2.87385e-07 0.0193155)
(4.67254e-07 2.80901e-07 0.019315)
(4.5161e-07 2.73699e-07 0.0193145)
(4.40701e-07 2.73041e-07 0.0193141)
(4.31107e-07 2.71668e-07 0.0193137)
(4.21941e-07 2.66133e-07 0.0193132)
(3.85383e-07 2.43643e-07 0.0193129)
(4.72634e-07 2.80515e-07 0.0193125)
(3.51679e-07 2.41288e-07 0.019312)
(1.57574e-05 1.92063e-06 0.0231994)
(4.13212e-06 5.34407e-07 0.0232259)
(4.16533e-06 5.87218e-07 0.0232396)
(5.90195e-06 8.1338e-07 0.0232399)
(4.43491e-06 6.50048e-07 0.0232406)
(3.28798e-06 5.38013e-07 0.0232428)
(2.97776e-06 5.282e-07 0.0232446)
(2.79456e-06 5.27333e-07 0.0232459)
(2.56111e-06 5.15484e-07 0.0232468)
(2.34893e-06 5.03903e-07 0.0232476)
(2.1814e-06 4.96053e-07 0.0232482)
(2.04185e-06 4.89766e-07 0.0232486)
(1.9179e-06 4.83605e-07 0.0232489)
(1.80631e-06 4.77431e-07 0.0232491)
(1.70608e-06 4.7135e-07 0.0232491)
(1.61579e-06 4.65345e-07 0.0232491)
(1.5339e-06 4.59349e-07 0.0232491)
(1.45915e-06 4.53327e-07 0.023249)
(1.39063e-06 4.47276e-07 0.0232488)
(1.3276e-06 4.41206e-07 0.0232486)
(1.26942e-06 4.35124e-07 0.0232484)
(1.21558e-06 4.29039e-07 0.0232482)
(1.1656e-06 4.2296e-07 0.023248)
(1.11905e-06 4.169e-07 0.0232477)
(1.07562e-06 4.1087e-07 0.0232475)
(1.03503e-06 4.04879e-07 0.0232472)
(9.97006e-07 3.98925e-07 0.023247)
(9.61254e-07 3.93023e-07 0.0232468)
(9.27575e-07 3.87202e-07 0.0232465)
(8.95903e-07 3.81443e-07 0.0232463)
(8.66116e-07 3.75715e-07 0.023246)
(8.37808e-07 3.70059e-07 0.0232458)
(8.10752e-07 3.64553e-07 0.0232456)
(7.85416e-07 3.59184e-07 0.0232454)
(7.61789e-07 3.53729e-07 0.0232452)
(7.38633e-07 3.48203e-07 0.023245)
(7.15982e-07 3.43187e-07 0.0232448)
(6.95472e-07 3.38432e-07 0.0232446)
(6.77153e-07 3.32972e-07 0.0232444)
(6.57035e-07 3.27122e-07 0.0232442)
(6.37391e-07 3.23398e-07 0.0232441)
(6.21922e-07 3.20188e-07 0.0232439)
(6.06718e-07 3.13488e-07 0.0232438)
(5.87471e-07 3.05637e-07 0.0232437)
(5.7314e-07 3.05365e-07 0.0232435)
(5.6182e-07 3.05203e-07 0.0232434)
(5.51384e-07 2.98338e-07 0.0232433)
(5.08347e-07 2.74284e-07 0.0232432)
(6.10572e-07 3.16013e-07 0.023243)
(4.66812e-07 2.72336e-07 0.023243)
(1.31677e-05 1.88438e-06 0.0277458)
(5.06731e-06 7.11053e-07 0.0277666)
(3.73527e-06 5.74644e-07 0.0277798)
(5.47537e-06 8.40619e-07 0.0277813)
(4.43508e-06 7.00567e-07 0.0277825)
(3.27143e-06 5.60073e-07 0.0277852)
(2.91774e-06 5.38429e-07 0.0277878)
(2.76262e-06 5.37162e-07 0.0277899)
(2.55712e-06 5.22667e-07 0.0277918)
(2.36135e-06 5.074e-07 0.0277937)
(2.20986e-06 4.97256e-07 0.0277954)
(2.08744e-06 4.89812e-07 0.027797)
(1.97948e-06 4.83009e-07 0.0277985)
(1.88203e-06 4.76562e-07 0.0277999)
(1.79425e-06 4.70568e-07 0.0278012)
(1.71487e-06 4.64955e-07 0.0278024)
(1.64239e-06 4.59579e-07 0.0278035)
(1.57565e-06 4.54343e-07 0.0278046)
(1.51386e-06 4.49202e-07 0.0278056)
(1.45639e-06 4.44127e-07 0.0278065)
(1.40277e-06 4.39098e-07 0.0278073)
(1.35257e-06 4.34098e-07 0.0278082)
(1.30545e-06 4.29116e-07 0.0278089)
(1.26108e-06 4.24149e-07 0.0278096)
(1.21922e-06 4.19197e-07 0.0278103)
(1.17968e-06 4.14258e-07 0.027811)
(1.14227e-06 4.09324e-07 0.0278116)
(1.10675e-06 4.04403e-07 0.0278122)
(1.07296e-06 3.99522e-07 0.0278128)
(1.04089e-06 3.94661e-07 0.0278133)
(1.01047e-06 3.89783e-07 0.0278138)
(9.81346e-07 3.84923e-07 0.0278143)
(9.53256e-07 3.80174e-07 0.0278148)
(9.26719e-07 3.75526e-07 0.0278153)
(9.01865e-07 3.7073e-07 0.0278158)
(8.77377e-07 3.658e-07 0.0278162)
(8.53117e-07 3.61376e-07 0.0278166)
(8.3102e-07 3.57237e-07 0.0278171)
(8.11211e-07 3.52213e-07 0.0278175)
(7.89589e-07 3.46686e-07 0.0278179)
(7.67835e-07 3.43462e-07 0.0278183)
(7.50582e-07 3.40976e-07 0.0278187)
(7.34368e-07 3.34419e-07 0.0278191)
(7.13238e-07 3.26306e-07 0.0278194)
(6.96013e-07 3.26783e-07 0.0278198)
(6.83303e-07 3.28127e-07 0.0278202)
(6.73574e-07 3.20438e-07 0.0278206)
(6.27139e-07 2.94752e-07 0.0278209)
(7.38882e-07 3.43174e-07 0.0278211)
(5.78581e-07 2.94058e-07 0.0278218)
(1.06067e-05 1.82396e-06 0.0330153)
(5.70851e-06 9.16011e-07 0.0330317)
(3.46547e-06 5.82588e-07 0.0330443)
(4.93103e-06 8.58386e-07 0.0330468)