/*--------------------------------*- C++ -*----------------------------------*\
  =========                 |
  \\      /  F ield         | OpenFOAM: The Open Source CFD Toolbox
   \\    /   O peration     | Website:  https://openfoam.org
    \\  /    A nd           | Version:  10
     \\/     M anipulation  |
\*---------------------------------------------------------------------------*/
FoamFile
{
    format      ascii;
    class       volScalarField;
    location    "1244";
    object      p;
}
// * * * * * * * * * * * * * * * * * * * * * * * * * * * * * * * * * * * * * //

dimensions      [0 2 -2 0 0 0 0];

internalField   nonuniform List<scalar> 
15350
(
0.0500273
0.050031
0.0500303
0.0500292
0.0500291
0.0500292
0.0500293
0.0500293
0.0500293
0.0500293
0.0500292
0.0500292
0.0500292
0.0500294
0.0500298
0.0500305
0.0500317
0.0500335
0.0500359
0.0500391
0.0500433
0.0500485
0.0500551
0.050063
0.0500724
0.0500833
0.0500939
0.0500532
0.050061
0.0500642
0.0500657
0.0500673
0.0500689
0.0500705
0.0500722
0.0500739
0.0500756
0.0500773
0.0500791
0.0500808
0.0500825
0.0500842
0.0500859
0.0500875
0.0500891
0.0500907
0.0500923
0.0500939
0.0500953
0.0500966
0.0500977
0.0500985
0.0500989
0.050099
0.0500563
0.0500599
0.0500622
0.0500639
0.0500657
0.0500676
0.0500695
0.0500716
0.0500737
0.0500758
0.0500781
0.0500804
0.0500827
0.0500851
0.0500875
0.0500898
0.0500922
0.0500944
0.0500965
0.0500984
0.0501001
0.0501013
0.0501021
0.0501023
0.0501017
0.0501003
0.0500983
0.0500548
0.0500567
0.0500585
0.0500601
0.0500618
0.0500636
0.0500655
0.0500674
0.0500693
0.0500713
0.0500733
0.0500754
0.0500775
0.0500796
0.0500816
0.0500837
0.0500857
0.0500877
0.0500895
0.0500913
0.0500928
0.0500941
0.050095
0.0500955
0.0500955
0.0500949
0.0500936
0.0500525
0.0500541
0.0500558
0.0500575
0.0500592
0.0500611
0.050063
0.0500649
0.050067
0.050069
0.0500711
0.0500731
0.0500752
0.0500773
0.0500793
0.0500813
0.0500832
0.0500851
0.0500868
0.0500883
0.0500897
0.0500908
0.0500915
0.0500918
0.0500917
0.0500909
0.0500894
0.0500497
0.0500512
0.0500529
0.0500546
0.0500564
0.0500583
0.0500603
0.0500623
0.0500644
0.0500665
0.0500686
0.0500707
0.0500729
0.050075
0.0500771
0.0500791
0.050081
0.0500828
0.0500845
0.050086
0.0500872
0.0500882
0.0500887
0.0500888
0.0500884
0.0500873
0.0500854
0.0500463
0.0500479
0.0500496
0.0500513
0.0500531
0.0500551
0.0500571
0.0500591
0.0500613
0.0500634
0.0500656
0.0500677
0.0500699
0.050072
0.0500741
0.0500761
0.050078
0.0500797
0.0500814
0.0500828
0.0500839
0.0500847
0.0500851
0.0500851
0.0500844
0.0500831
0.0500811
0.0500425
0.0500441
0.0500458
0.0500476
0.0500494
0.0500514
0.0500535
0.0500556
0.0500577
0.0500599
0.0500621
0.0500643
0.0500664
0.0500686
0.0500706
0.0500726
0.0500745
0.0500762
0.0500777
0.050079
0.0500801
0.0500807
0.050081
0.0500808
0.05008
0.0500785
0.0500763
0.0500383
0.0500399
0.0500417
0.0500435
0.0500453
0.0500474
0.0500494
0.0500516
0.0500538
0.050056
0.0500582
0.0500604
0.0500626
0.0500647
0.0500667
0.0500687
0.0500705
0.0500722
0.0500737
0.0500749
0.0500758
0.0500764
0.0500765
0.0500762
0.0500752
0.0500736
0.0500712
0.0500337
0.0500353
0.0500371
0.0500389
0.0500408
0.0500429
0.050045
0.0500472
0.0500494
0.0500516
0.0500539
0.0500561
0.0500583
0.0500604
0.0500624
0.0500644
0.0500662
0.0500678
0.0500692
0.0500704
0.0500712
0.0500717
0.0500717
0.0500712
0.0500701
0.0500683
0.0500657
0.0500286
0.0500303
0.0500321
0.0500339
0.0500359
0.050038
0.0500401
0.0500423
0.0500446
0.0500468
0.0500491
0.0500513
0.0500535
0.0500557
0.0500577
0.0500596
0.0500614
0.050063
0.0500643
0.0500654
0.0500662
0.0500665
0.0500664
0.0500658
0.0500646
0.0500626
0.0500599
0.0500232
0.0500249
0.0500267
0.0500286
0.0500305
0.0500326
0.0500348
0.050037
0.0500393
0.0500416
0.0500439
0.0500461
0.0500484
0.0500505
0.0500525
0.0500544
0.0500562
0.0500577
0.050059
0.05006
0.0500607
0.050061
0.0500608
0.05006
0.0500587
0.0500566
0.0500537
0.0500173
0.050019
0.0500209
0.0500227
0.0500247
0.0500269
0.0500291
0.0500313
0.0500336
0.0500359
0.0500382
0.0500405
0.0500427
0.0500449
0.0500469
0.0500488
0.0500505
0.050052
0.0500533
0.0500542
0.0500548
0.050055
0.0500547
0.0500539
0.0500524
0.0500502
0.0500472
0.050011
0.0500127
0.0500146
0.0500165
0.0500185
0.0500206
0.0500229
0.0500252
0.0500275
0.0500298
0.0500321
0.0500344
0.0500367
0.0500388
0.0500408
0.0500427
0.0500444
0.0500459
0.0500471
0.050048
0.0500486
0.0500487
0.0500483
0.0500474
0.0500458
0.0500435
0.0500404
0.0500043
0.050006
0.0500079
0.0500098
0.0500118
0.050014
0.0500162
0.0500185
0.0500209
0.0500233
0.0500256
0.0500279
0.0500301
0.0500323
0.0500343
0.0500362
0.0500379
0.0500393
0.0500405
0.0500414
0.0500419
0.0500419
0.0500415
0.0500405
0.0500388
0.0500364
0.0500332
0.0499972
0.0499988
0.0500007
0.0500026
0.0500047
0.0500069
0.0500092
0.0500115
0.0500139
0.0500162
0.0500186
0.0500209
0.0500232
0.0500253
0.0500274
0.0500292
0.0500309
0.0500324
0.0500335
0.0500343
0.0500348
0.0500348
0.0500343
0.0500332
0.0500315
0.050029
0.0500257
0.0499896
0.0499912
0.0499931
0.049995
0.0499971
0.0499993
0.0500016
0.050004
0.0500064
0.0500088
0.0500112
0.0500135
0.0500158
0.050018
0.05002
0.0500219
0.0500235
0.050025
0.0500261
0.0500269
0.0500273
0.0500273
0.0500267
0.0500256
0.0500238
0.0500212
0.0500178
0.0499816
0.0499832
0.0499851
0.049987
0.0499891
0.0499913
0.0499937
0.049996
0.0499985
0.0500009
0.0500033
0.0500057
0.050008
0.0500101
0.0500122
0.0500141
0.0500157
0.0500172
0.0500183
0.0500191
0.0500195
0.0500194
0.0500188
0.0500176
0.0500157
0.0500131
0.0500097
0.0499732
0.0499747
0.0499766
0.0499785
0.0499807
0.0499829
0.0499852
0.0499876
0.0499901
0.0499925
0.049995
0.0499974
0.0499997
0.0500019
0.050004
0.0500058
0.0500075
0.050009
0.0500101
0.0500109
0.0500112
0.0500111
0.0500105
0.0500092
0.0500073
0.0500047
0.0500012
0.0499643
0.0499658
0.0499677
0.0499696
0.0499718
0.049974
0.0499764
0.0499788
0.0499813
0.0499838
0.0499862
0.0499887
0.049991
0.0499932
0.0499953
0.0499972
0.0499989
0.0500004
0.0500015
0.0500023
0.0500026
0.0500025
0.0500018
0.0500006
0.0499986
0.0499959
0.0499924
0.049955
0.0499565
0.0499583
0.0499603
0.0499624
0.0499647
0.0499671
0.0499695
0.049972
0.0499746
0.0499771
0.0499795
0.0499819
0.0499842
0.0499863
0.0499882
0.0499899
0.0499914
0.0499925
0.0499933
0.0499937
0.0499935
0.0499929
0.0499916
0.0499896
0.0499869
0.0499833
0.0499452
0.0499467
0.0499485
0.0499505
0.0499527
0.049955
0.0499574
0.0499599
0.0499624
0.0499649
0.0499675
0.04997
0.0499724
0.0499747
0.0499768
0.0499788
0.0499805
0.049982
0.0499832
0.049984
0.0499843
0.0499842
0.0499836
0.0499823
0.0499803
0.0499776
0.049974
0.0499351
0.0499365
0.0499383
0.0499403
0.0499425
0.0499448
0.0499472
0.0499497
0.0499523
0.0499549
0.0499575
0.04996
0.0499625
0.0499648
0.049967
0.049969
0.0499708
0.0499723
0.0499735
0.0499743
0.0499747
0.0499746
0.049974
0.0499727
0.0499707
0.049968
0.0499644
0.0499245
0.0499259
0.0499277
0.0499297
0.0499319
0.0499342
0.0499367
0.0499392
0.0499419
0.0499445
0.0499471
0.0499497
0.0499522
0.0499546
0.0499568
0.0499589
0.0499607
0.0499623
0.0499635
0.0499644
0.0499648
0.0499647
0.0499641
0.0499628
0.0499609
0.0499582
0.0499546
0.0499135
0.0499149
0.0499167
0.0499187
0.0499209
0.0499233
0.0499258
0.0499283
0.049931
0.0499337
0.0499364
0.049939
0.0499416
0.049944
0.0499463
0.0499484
0.0499503
0.0499519
0.0499532
0.0499541
0.0499546
0.0499545
0.049954
0.0499527
0.0499508
0.0499481
0.0499445
0.0499021
0.0499035
0.0499053
0.0499073
0.0499095
0.0499119
0.0499144
0.0499171
0.0499198
0.0499225
0.0499252
0.0499279
0.0499306
0.0499331
0.0499354
0.0499376
0.0499396
0.0499412
0.0499426
0.0499435
0.0499441
0.0499441
0.0499436
0.0499424
0.0499405
0.0499378
0.0499343
0.0498904
0.0498917
0.0498935
0.0498955
0.0498978
0.0499002
0.0499028
0.0499054
0.0499082
0.049911
0.0499138
0.0499166
0.0499193
0.0499218
0.0499243
0.0499265
0.0499286
0.0499303
0.0499317
0.0499327
0.0499333
0.0499334
0.0499329
0.0499318
0.04993
0.0499274
0.0499239
0.0498782
0.0498796
0.0498814
0.0498834
0.0498857
0.0498881
0.0498908
0.0498935
0.0498963
0.0498992
0.049902
0.0499049
0.0499076
0.0499103
0.0499128
0.0499152
0.0499173
0.0499191
0.0499206
0.0499217
0.0499224
0.0499226
0.0499221
0.0499211
0.0499193
0.0499168
0.0499133
0.0498657
0.0498672
0.0498689
0.049871
0.0498733
0.0498758
0.0498784
0.0498812
0.0498841
0.049887
0.04989
0.0498929
0.0498958
0.0498985
0.0499011
0.0499036
0.0499058
0.0499077
0.0499093
0.0499105
0.0499112
0.0499115
0.0499112
0.0499102
0.0499085
0.049906
0.0499026
0.0498529
0.0498544
0.0498562
0.0498582
0.0498606
0.0498631
0.0498658
0.0498687
0.0498716
0.0498746
0.0498776
0.0498807
0.0498836
0.0498865
0.0498892
0.0498917
0.049894
0.049896
0.0498977
0.0498991
0.0498999
0.0499003
0.0499
0.0498992
0.0498975
0.0498951
0.0498918
0.0498398
0.0498414
0.0498431
0.0498452
0.0498476
0.0498501
0.0498529
0.0498558
0.0498589
0.049862
0.0498651
0.0498682
0.0498712
0.0498742
0.049877
0.0498797
0.0498821
0.0498842
0.0498861
0.0498875
0.0498885
0.0498889
0.0498888
0.049888
0.0498865
0.0498842
0.049881
0.0498264
0.0498281
0.0498298
0.0498319
0.0498343
0.049837
0.0498398
0.0498428
0.0498459
0.0498491
0.0498523
0.0498555
0.0498587
0.0498618
0.0498647
0.0498675
0.04987
0.0498723
0.0498742
0.0498758
0.0498769
0.0498775
0.0498775
0.0498768
0.0498754
0.0498732
0.0498701
0.0498128
0.0498145
0.0498163
0.0498184
0.0498208
0.0498235
0.0498264
0.0498295
0.0498327
0.049836
0.0498393
0.0498427
0.049846
0.0498492
0.0498522
0.0498552
0.0498578
0.0498603
0.0498623
0.049864
0.0498653
0.049866
0.0498661
0.0498656
0.0498643
0.0498622
0.0498592
0.0497989
0.0498008
0.0498026
0.0498047
0.0498072
0.04981
0.0498129
0.0498161
0.0498194
0.0498228
0.0498262
0.0498297
0.0498331
0.0498365
0.0498397
0.0498427
0.0498456
0.0498481
0.0498504
0.0498522
0.0498536
0.0498545
0.0498548
0.0498544
0.0498532
0.0498512
0.0498483
0.0497848
0.0497869
0.0497887
0.0497908
0.0497934
0.0497962
0.0497993
0.0498025
0.0498059
0.0498094
0.049813
0.0498166
0.0498202
0.0498237
0.0498271
0.0498303
0.0498333
0.049836
0.0498384
0.0498404
0.049842
0.049843
0.0498434
0.0498432
0.0498422
0.0498403
0.0498375
0.0497706
0.0497729
0.0497746
0.0497769
0.0497795
0.0497824
0.0497855
0.0497889
0.0497924
0.049796
0.0497998
0.0498035
0.0498072
0.0498109
0.0498144
0.0498178
0.049821
0.0498239
0.0498265
0.0498286
0.0498304
0.0498316
0.0498322
0.0498321
0.0498312
0.0498295
0.0498268
0.0497562
0.0497587
0.0497605
0.0497628
0.0497655
0.0497685
0.0497717
0.0497752
0.0497788
0.0497826
0.0497865
0.0497904
0.0497942
0.0497981
0.0498018
0.0498054
0.0498087
0.0498118
0.0498146
0.0498169
0.0498189
0.0498202
0.049821
0.0498211
0.0498204
0.0498188
0.0498163
0.0497418
0.0497446
0.0497464
0.0497487
0.0497515
0.0497545
0.0497579
0.0497615
0.0497653
0.0497692
0.0497732
0.0497773
0.0497813
0.0497853
0.0497892
0.049793
0.0497966
0.0497999
0.0498028
0.0498054
0.0498075
0.0498091
0.04981
0.0498103
0.0498097
0.0498083
0.0498059
0.0497273
0.0497304
0.0497323
0.0497346
0.0497375
0.0497407
0.0497441
0.0497478
0.0497518
0.0497558
0.04976
0.0497643
0.0497685
0.0497727
0.0497768
0.0497808
0.0497845
0.049788
0.0497912
0.049794
0.0497963
0.0497981
0.0497992
0.0497997
0.0497993
0.049798
0.0497958
0.0497128
0.0497163
0.0497182
0.0497206
0.0497235
0.0497268
0.0497304
0.0497343
0.0497384
0.0497426
0.049747
0.0497514
0.0497558
0.0497602
0.0497646
0.0497687
0.0497727
0.0497764
0.0497798
0.0497828
0.0497854
0.0497873
0.0497887
0.0497893
0.0497891
0.049788
0.0497859
0.0496983
0.0497022
0.0497042
0.0497067
0.0497097
0.0497131
0.0497169
0.0497209
0.0497251
0.0497295
0.0497341
0.0497387
0.0497434
0.049748
0.0497525
0.0497569
0.0497611
0.0497651
0.0497687
0.049772
0.0497747
0.0497769
0.0497785
0.0497793
0.0497793
0.0497784
0.0497764
0.0496839
0.0496883
0.0496904
0.0496929
0.0496961
0.0496996
0.0497035
0.0497077
0.0497121
0.0497167
0.0497214
0.0497263
0.0497311
0.049736
0.0497408
0.0497454
0.0497499
0.0497541
0.0497579
0.0497614
0.0497644
0.0497668
0.0497686
0.0497696
0.0497698
0.0497691
0.0497673
0.0496697
0.0496747
0.0496768
0.0496794
0.0496827
0.0496864
0.0496904
0.0496947
0.0496993
0.0497041
0.0497091
0.0497141
0.0497192
0.0497243
0.0497293
0.0497342
0.049739
0.0497434
0.0497475
0.0497512
0.0497545
0.0497571
0.0497591
0.0497603
0.0497607
0.0497602
0.0497585
0.0496557
0.0496612
0.0496634
0.0496662
0.0496696
0.0496734
0.0496776
0.0496821
0.0496869
0.0496919
0.0496971
0.0497024
0.0497077
0.049713
0.0497183
0.0497235
0.0497285
0.0497332
0.0497376
0.0497415
0.049745
0.0497479
0.0497501
0.0497516
0.0497521
0.0497517
0.0497503
0.0496419
0.0496481
0.0496504
0.0496533
0.0496568
0.0496608
0.0496651
0.0496698
0.0496748
0.0496801
0.0496855
0.049691
0.0496966
0.0497022
0.0497078
0.0497132
0.0497185
0.0497235
0.0497281
0.0497323
0.0497361
0.0497392
0.0497416
0.0497433
0.0497441
0.0497438
0.0497425
0.0496284
0.0496354
0.0496378
0.0496408
0.0496444
0.0496486
0.0496531
0.0496581
0.0496633
0.0496687
0.0496744
0.0496802
0.049686
0.0496919
0.0496978
0.0497035
0.049709
0.0497143
0.0497192
0.0497237
0.0497277
0.0497311
0.0497338
0.0497356
0.0497366
0.0497365
0.0497353
0.0496154
0.0496232
0.0496257
0.0496287
0.0496326
0.0496369
0.0496416
0.0496468
0.0496522
0.0496579
0.0496638
0.0496699
0.049676
0.0496822
0.0496883
0.0496944
0.0497002
0.0497058
0.049711
0.0497158
0.04972
0.0497236
0.0497265
0.0497286
0.0497297
0.0497298
0.0497288
0.0496027
0.0496114
0.0496141
0.0496173
0.0496213
0.0496258
0.0496307
0.0496361
0.0496417
0.0496477
0.0496539
0.0496602
0.0496667
0.0496731
0.0496796
0.0496859
0.0496921
0.0496979
0.0497034
0.0497085
0.049713
0.0497169
0.04972
0.0497222
0.0497235
0.0497238
0.0497228
0.0495906
0.0496003
0.0496031
0.0496064
0.0496106
0.0496153
0.0496204
0.049626
0.0496319
0.0496382
0.0496446
0.0496513
0.049658
0.0496648
0.0496716
0.0496782
0.0496847
0.0496909
0.0496967
0.049702
0.0497068
0.0497109
0.0497142
0.0497167
0.0497181
0.0497185
0.0497176
0.0495792
0.04959
0.0495929
0.0495962
0.0496006
0.0496055
0.0496109
0.0496167
0.0496229
0.0496294
0.0496362
0.0496431
0.0496502
0.0496573
0.0496644
0.0496714
0.0496782
0.0496847
0.0496908
0.0496965
0.0497015
0.0497058
0.0497093
0.0497119
0.0497135
0.0497139
0.0497132
0.0495687
0.0495805
0.0495834
0.0495869
0.0495914
0.0495965
0.0496021
0.0496082
0.0496147
0.0496215
0.0496286
0.0496359
0.0496433
0.0496508
0.0496582
0.0496655
0.0496727
0.0496795
0.0496859
0.0496919
0.0496971
0.0497017
0.0497054
0.049708
0.0497097
0.0497102
0.0497095
0.0495594
0.0495718
0.0495746
0.0495782
0.0495829
0.0495882
0.0495941
0.0496005
0.0496072
0.0496144
0.0496218
0.0496294
0.0496372
0.0496451
0.0496529
0.0496606
0.0496681
0.0496753
0.049682
0.0496883
0.0496938
0.0496985
0.0497023
0.0497051
0.0497068
0.0497072
0.0497065
0.049551
0.0495617
0.0495643
0.0495681
0.0495731
0.0495788
0.0495851
0.0495919
0.0495991
0.0496066
0.0496145
0.0496226
0.0496309
0.0496393
0.0496476
0.0496558
0.0496638
0.0496715
0.0496787
0.0496853
0.0496912
0.0496963
0.0497003
0.0497031
0.0497048
0.0497051
0.0497042
0.0495514
0.0495558
0.0495566
0.0495603
0.0495653
0.0495711
0.0495775
0.0495845
0.0495919
0.0495997
0.0496078
0.0496162
0.0496248
0.0496334
0.0496421
0.0496506
0.049659
0.049667
0.0496745
0.0496815
0.0496878
0.0496931
0.0496975
0.0497007
0.0497025
0.0497029
0.0497019
0.0496114
0.049621
0.0496245
0.0496288
0.0496325
0.0496368
0.0496419
0.0496477
0.0496542
0.0496611
0.0496684
0.049676
0.0496837
0.0496913
0.0496987
0.0497057
0.0497122
0.0497179
0.0497226
0.0497262
0.0497284
0.0497291
0.0497281
0.0497253
0.0497205
0.0497134
0.049705
0.0476569
0.0483943
0.0488517
0.0491382
0.0493405
0.0494893
0.0496004
0.0496854
0.0497521
0.0498055
0.0498491
0.0498853
0.0499158
0.0499419
0.0499644
0.049984
0.0500013
0.0500166
0.0500302
0.0500424
0.0500533
0.0500631
0.0500718
0.0500796
0.0500864
0.0500924
0.0500974
0.0501016
0.0501049
0.0501073
0.0501088
0.0501092
0.0501095
0.0501047
0.0501137
0.0487137
0.0489287
0.049137
0.0493003
0.0494319
0.0495387
0.0496251
0.0496954
0.0497533
0.0498014
0.0498418
0.0498762
0.0499057
0.0499313
0.0499537
0.0499735
0.0499912
0.050007
0.0500212
0.0500339
0.0500455
0.050056
0.0500654
0.0500738
0.0500814
0.050088
0.0500937
0.0500986
0.0501025
0.0501055
0.0501076
0.0501085
0.0501095
0.0501042
0.0501221
0.0491642
0.0492282
0.0493141
0.0494067
0.0494947
0.0495735
0.0496423
0.0497015
0.0497525
0.0497962
0.049834
0.0498669
0.0498956
0.0499208
0.0499432
0.0499632
0.0499811
0.0499974
0.0500121
0.0500254
0.0500376
0.0500487
0.0500588
0.0500678
0.050076
0.0500833
0.0500897
0.0500951
0.0500996
0.0501032
0.0501059
0.0501073
0.050109
0.0501029
0.0501304
0.0494103
0.0494279
0.0494637
0.0495143
0.0495692
0.0496233
0.049674
0.0497204
0.0497623
0.0497997
0.0498331
0.049863
0.0498897
0.0499137
0.0499353
0.0499549
0.0499727
0.049989
0.0500039
0.0500175
0.0500301
0.0500416
0.0500521
0.0500617
0.0500704
0.0500782
0.0500851
0.0500912
0.0500962
0.0501003
0.0501035
0.0501054
0.0501078
0.0501007
0.0501374
0.0495709
0.0495705
0.0495828
0.0496086
0.0496413
0.0496767
0.0497124
0.0497471
0.04978
0.0498106
0.0498389
0.049865
0.0498889
0.0499108
0.049931
0.0499496
0.0499668
0.0499827
0.0499973
0.050011
0.0500236
0.0500352
0.050046
0.050056
0.050065
0.0500732
0.0500806
0.050087
0.0500925
0.0500971
0.0501007
0.050103
0.0501061
0.0500979
0.0501431
0.0496804
0.0496736
0.0496751
0.0496872
0.0497059
0.0497283
0.0497526
0.0497777
0.0498026
0.0498267
0.0498499
0.0498719
0.0498926
0.0499121
0.0499303
0.0499475
0.0499635
0.0499786
0.0499927
0.050006
0.0500184
0.05003
0.0500408
0.0500509
0.0500601
0.0500685
0.0500761
0.0500828
0.0500887
0.0500937
0.0500977
0.0501004
0.050104
0.0500949
0.0501475
0.0497584
0.04975
0.0497469
0.0497516
0.0497617
0.0497754
0.0497916
0.0498092
0.0498275
0.0498461
0.0498645
0.0498825
0.0499
0.0499168
0.0499329
0.0499483
0.0499629
0.0499769
0.0499902
0.0500028
0.0500147
0.050026
0.0500366
0.0500466
0.0500557
0.0500642
0.050072
0.0500789
0.0500851
0.0500902
0.0500946
0.0500976
0.0501016
0.0500917
0.0501506
0.0498168
0.0498085
0.0498036
0.0498043
0.0498093
0.0498173
0.0498277
0.0498398
0.049853
0.0498669
0.0498812
0.0498956
0.04991
0.0499241
0.049938
0.0499515
0.0499646
0.0499773
0.0499895
0.0500013
0.0500125
0.0500233
0.0500335
0.0500431
0.0500522
0.0500606
0.0500683
0.0500753
0.0500815
0.0500869
0.0500915
0.0500947
0.0500991
0.0500885
0.0501525
0.049862
0.0498544
0.0498489
0.0498476
0.0498495
0.0498539
0.0498604
0.0498684
0.0498777
0.049888
0.0498989
0.0499102
0.0499217
0.0499334
0.0499451
0.0499567
0.0499682
0.0499795
0.0499905
0.0500013
0.0500117
0.0500218
0.0500314
0.0500406
0.0500494
0.0500576
0.0500651
0.0500721
0.0500783
0.0500837
0.0500884
0.0500918
0.0500964
0.0500854
0.0501533
0.049898
0.0498913
0.0498859
0.0498836
0.0498837
0.0498857
0.0498895
0.0498947
0.0499011
0.0499084
0.0499166
0.0499253
0.0499344
0.0499439
0.0499536
0.0499634
0.0499733
0.0499831
0.0499929
0.0500026
0.0500121
0.0500213
0.0500304
0.050039
0.0500473
0.0500551
0.0500625
0.0500692
0.0500754
0.0500808
0.0500855
0.050089
0.0500937
0.0500824
0.0501532
0.0499273
0.0499214
0.0499164
0.0499136
0.0499127
0.0499133
0.0499153
0.0499185
0.0499227
0.0499278
0.0499338
0.0499403
0.0499474
0.049955
0.0499628
0.049971
0.0499794
0.0499878
0.0499964
0.050005
0.0500135
0.0500219
0.0500302
0.0500382
0.0500459
0.0500533
0.0500603
0.0500668
0.0500728
0.0500781
0.0500827
0.0500863
0.0500911
0.0500795
0.0501522
0.0499517
0.0499465
0.0499419
0.0499391
0.0499376
0.0499372
0.049938
0.0499398
0.0499424
0.0499459
0.0499501
0.049955
0.0499604
0.0499663
0.0499726
0.0499792
0.0499862
0.0499934
0.0500007
0.0500082
0.0500157
0.0500233
0.0500307
0.0500381
0.0500452
0.0500521
0.0500587
0.0500648
0.0500705
0.0500756
0.0500802
0.0500837
0.0500885
0.0500768
0.0501506
0.0499722
0.0499676
0.0499635
0.0499607
0.0499589
0.049958
0.049958
0.0499588
0.0499603
0.0499626
0.0499654
0.0499689
0.0499729
0.0499774
0.0499824
0.0499877
0.0499934
0.0499994
0.0500056
0.0500121
0.0500186
0.0500252
0.0500319
0.0500385
0.050045
0.0500513
0.0500574
0.0500632
0.0500686
0.0500734
0.0500779
0.0500813
0.050086
0.0500744
0.0501484
0.0499896
0.0499857
0.049982
0.0499793
0.0499774
0.0499762
0.0499757
0.0499758
0.0499765
0.0499778
0.0499797
0.0499821
0.0499849
0.0499883
0.0499921
0.0499963
0.0500009
0.0500058
0.0500109
0.0500164
0.050022
0.0500277
0.0500336
0.0500394
0.0500453
0.050051
0.0500566
0.0500619
0.050067
0.0500716
0.0500757
0.0500791
0.0500835
0.050072
0.0501457
0.0500047
0.0500012
0.0499979
0.0499954
0.0499936
0.0499922
0.0499914
0.049991
0.0499911
0.0499917
0.0499928
0.0499943
0.0499963
0.0499987
0.0500015
0.0500047
0.0500083
0.0500122
0.0500164
0.0500209
0.0500257
0.0500306
0.0500356
0.0500408
0.050046
0.0500511
0.0500561
0.050061
0.0500656
0.0500699
0.0500738
0.050077
0.0500813
0.0500698
0.0501426
0.0500178
0.0500148
0.0500118
0.0500095
0.0500077
0.0500063
0.0500052
0.0500046
0.0500043
0.0500044
0.0500048
0.0500057
0.0500069
0.0500086
0.0500106
0.0500129
0.0500156
0.0500187
0.050022
0.0500257
0.0500296
0.0500337
0.050038
0.0500424
0.0500469
0.0500514
0.0500559
0.0500603
0.0500645
0.0500684
0.0500721
0.0500751
0.0500791
0.0500679
0.0501393
0.0500293
0.0500266
0.050024
0.0500219
0.0500202
0.0500187
0.0500176
0.0500167
0.0500161
0.0500159
0.0500159
0.0500162
0.0500169
0.0500179
0.0500192
0.0500208
0.0500228
0.0500251
0.0500276
0.0500305
0.0500337
0.050037
0.0500406
0.0500443
0.0500481
0.0500521
0.050056
0.0500598
0.0500636
0.0500672
0.0500705
0.0500733
0.0500771
0.0500661
0.0501358
0.0500394
0.0500371
0.0500348
0.0500329
0.0500312
0.0500298
0.0500286
0.0500277
0.0500269
0.0500263
0.050026
0.0500259
0.0500261
0.0500266
0.0500273
0.0500283
0.0500297
0.0500313
0.0500332
0.0500353
0.0500378
0.0500404
0.0500433
0.0500464
0.0500496
0.0500529
0.0500562
0.0500596
0.0500629
0.0500661
0.0500691
0.0500717
0.0500752
0.0500644
0.0501323
0.0500484
0.0500464
0.0500443
0.0500426
0.0500411
0.0500398
0.0500385
0.0500375
0.0500366
0.0500358
0.0500353
0.0500349
0.0500347
0.0500347
0.050035
0.0500355
0.0500363
0.0500373
0.0500386
0.0500401
0.0500419
0.0500439
0.0500461
0.0500486
0.0500511
0.0500539
0.0500567
0.0500595
0.0500624
0.0500651
0.0500678
0.0500702
0.0500735
0.0500629
0.0501288
0.0500565
0.0500547
0.0500529
0.0500513
0.0500499
0.0500486
0.0500475
0.0500464
0.0500454
0.0500445
0.0500438
0.0500431
0.0500427
0.0500423
0.0500422
0.0500423
0.0500426
0.0500431
0.0500438
0.0500448
0.050046
0.0500474
0.050049
0.0500508
0.0500528
0.050055
0.0500572
0.0500595
0.0500619
0.0500643
0.0500667
0.0500688
0.0500719
0.0500615
0.0501254
0.0500637
0.0500621
0.0500605
0.0500591
0.0500579
0.0500567
0.0500555
0.0500545
0.0500534
0.0500525
0.0500516
0.0500508
0.0500501
0.0500495
0.050049
0.0500487
0.0500486
0.0500486
0.0500489
0.0500493
0.05005
0.0500509
0.0500519
0.0500532
0.0500546
0.0500562
0.0500579
0.0500598
0.0500617
0.0500637
0.0500657
0.0500676
0.0500704
0.0500603
0.0501222
0.0500703
0.0500689
0.0500675
0.0500662
0.0500651
0.050064
0.0500629
0.0500618
0.0500608
0.0500597
0.0500587
0.0500578
0.0500569
0.0500561
0.0500554
0.0500548
0.0500543
0.050054
0.0500538
0.0500538
0.050054
0.0500543
0.0500549
0.0500556
0.0500565
0.0500575
0.0500587
0.05006
0.0500615
0.050063
0.0500647
0.0500664
0.0500691
0.0500592
0.0501191
0.0500762
0.050075
0.0500738
0.0500727
0.0500716
0.0500706
0.0500696
0.0500685
0.0500675
0.0500664
0.0500654
0.0500643
0.0500633
0.0500623
0.0500614
0.0500605
0.0500597
0.0500591
0.0500585
0.0500581
0.0500578
0.0500577
0.0500578
0.050058
0.0500584
0.0500589
0.0500596
0.0500604
0.0500614
0.0500625
0.0500638
0.0500652
0.0500677
0.0500583
0.0501164
0.0500816
0.0500806
0.0500795
0.0500786
0.0500776
0.0500767
0.0500757
0.0500747
0.0500737
0.0500726
0.0500715
0.0500704
0.0500693
0.0500681
0.050067
0.0500659
0.0500649
0.0500639
0.0500631
0.0500623
0.0500616
0.0500611
0.0500607
0.0500605
0.0500604
0.0500605
0.0500607
0.050061
0.0500615
0.0500622
0.0500631
0.0500643
0.0500667
0.0500579
0.0501145
0.0500867
0.0500858
0.0500848
0.0500839
0.0500831
0.0500822
0.0500812
0.0500802
0.0500792
0.0500781
0.050077
0.0500758
0.0500745
0.0500732
0.050072
0.0500707
0.0500694
0.0500682
0.0500671
0.050066
0.0500651
0.0500642
0.0500635
0.0500629
0.0500625
0.0500622
0.050062
0.050062
0.0500621
0.0500624
0.050063
0.050064
0.0500663
0.0500588
0.0501151
0.0500911
0.0500903
0.0500894
0.0500886
0.0500877
0.0500869
0.050086
0.0500851
0.0500841
0.050083
0.0500819
0.0500807
0.0500795
0.0500782
0.0500769
0.0500755
0.0500741
0.0500727
0.0500714
0.05007
0.0500688
0.0500675
0.0500664
0.0500653
0.0500643
0.0500633
0.0500625
0.0500617
0.050061
0.0500604
0.0500599
0.0500597
0.0500608
0.0500527
0.0501124
0.0500962
0.0500959
0.0500956
0.0500954
0.0500953
0.0500951
0.0500948
0.0500944
0.0500939
0.0500932
0.0500924
0.0500915
0.0500904
0.0500892
0.0500877
0.0500862
0.0500845
0.0500827
0.0500807
0.0500786
0.0500763
0.050074
0.0500715
0.0500689
0.0500662
0.0500633
0.0500603
0.0500571
0.0500536
0.0500498
0.0500457
0.0500412
0.050038
0.0500219
0.0500712
0.0500986
0.0500977
0.0500966
0.0500956
0.0500945
0.0500934
0.0500922
0.050091
0.0500897
0.0500884
0.050087
0.0500856
0.0500841
0.0500825
0.050081
0.0500794
0.0500779
0.0500765
0.0500751
0.0500739
0.0500728
0.0500719
0.0500712
0.0500708
0.0500707
0.050071
0.0500717
0.0500729
0.0500745
0.0500768
0.0500797
0.0500833
0.0500875
0.0500895
0.0501074
0.050103
0.0501025
0.0501021
0.0501016
0.0501011
0.0501006
0.0500999
0.0500991
0.0500982
0.0500972
0.050096
0.0500947
0.0500933
0.0500917
0.05009
0.0500882
0.0500863
0.0500844
0.0500824
0.0500804
0.0500785
0.0500766
0.0500747
0.050073
0.0500714
0.0500699
0.0500686
0.0500676
0.0500667
0.0500661
0.0500657
0.0500654
0.0500647
0.050063
0.0500641
0.0501062
0.0501058
0.0501053
0.0501049
0.0501044
0.0501038
0.0501031
0.0501023
0.0501014
0.0501004
0.0500992
0.0500978
0.0500963
0.0500946
0.0500928
0.0500909
0.0500889
0.0500868
0.0500847
0.0500825
0.0500803
0.0500781
0.050076
0.0500739
0.050072
0.0500702
0.0500685
0.050067
0.0500656
0.0500644
0.0500633
0.0500622
0.0500608
0.0500594
0.05006
0.0501094
0.050109
0.0501087
0.0501083
0.0501079
0.0501073
0.0501067
0.0501059
0.050105
0.0501039
0.0501026
0.0501012
0.0500996
0.0500978
0.0500959
0.0500938
0.0500916
0.0500893
0.0500869
0.0500844
0.050082
0.0500795
0.0500771
0.0500748
0.0500725
0.0500704
0.0500685
0.0500667
0.050065
0.0500636
0.0500622
0.0500609
0.0500595
0.0500584
0.0500574
0.0501123
0.0501121
0.0501118
0.0501115
0.0501111
0.0501107
0.0501101
0.0501093
0.0501084
0.0501073
0.050106
0.0501045
0.0501028
0.0501009
0.0500988
0.0500965
0.0500941
0.0500916
0.0500889
0.0500862
0.0500834
0.0500807
0.0500779
0.0500753
0.0500727
0.0500702
0.0500679
0.0500658
0.0500639
0.0500621
0.0500604
0.0500588
0.0500573
0.0500558
0.0500541
0.0501152
0.050115
0.0501148
0.0501146
0.0501143
0.0501139
0.0501133
0.0501126
0.0501116
0.0501105
0.0501091
0.0501076
0.0501058
0.0501037
0.0501015
0.050099
0.0500964
0.0500936
0.0500907
0.0500877
0.0500846
0.0500815
0.0500785
0.0500754
0.0500725
0.0500697
0.050067
0.0500645
0.0500622
0.05006
0.050058
0.0500561
0.0500544
0.0500526
0.0500507
0.0501179
0.0501178
0.0501177
0.0501175
0.0501173
0.0501169
0.0501164
0.0501156
0.0501147
0.0501135
0.0501122
0.0501105
0.0501086
0.0501064
0.050104
0.0501014
0.0500985
0.0500955
0.0500923
0.050089
0.0500855
0.0500821
0.0500787
0.0500752
0.0500719
0.0500687
0.0500657
0.0500628
0.0500601
0.0500576
0.0500553
0.0500531
0.0500511
0.0500492
0.0500471
0.0501204
0.0501204
0.0501204
0.0501203
0.0501201
0.0501198
0.0501193
0.0501186
0.0501177
0.0501165
0.050115
0.0501133
0.0501113
0.0501089
0.0501063
0.0501035
0.0501004
0.0500971
0.0500936
0.0500899
0.0500862
0.0500823
0.0500785
0.0500747
0.050071
0.0500674
0.0500639
0.0500607
0.0500576
0.0500548
0.0500522
0.0500497
0.0500475
0.0500454
0.0500432
0.0501229
0.0501229
0.050123
0.050123
0.0501229
0.0501226
0.0501221
0.0501215
0.0501205
0.0501193
0.0501178
0.0501159
0.0501138
0.0501113
0.0501085
0.0501054
0.0501021
0.0500984
0.0500946
0.0500906
0.0500865
0.0500822
0.050078
0.0500738
0.0500697
0.0500656
0.0500618
0.0500581
0.0500547
0.0500516
0.0500486
0.0500459
0.0500435
0.0500412
0.0500389
0.0501252
0.0501254
0.0501255
0.0501256
0.0501255
0.0501253
0.0501249
0.0501242
0.0501232
0.050122
0.0501204
0.0501184
0.0501161
0.0501135
0.0501105
0.0501071
0.0501035
0.0500996
0.0500954
0.050091
0.0500865
0.0500818
0.0500771
0.0500725
0.0500679
0.0500635
0.0500592
0.0500552
0.0500514
0.0500478
0.0500446
0.0500417
0.050039
0.0500366
0.0500342
0.0501275
0.0501277
0.050128
0.0501281
0.0501281
0.0501279
0.0501275
0.0501268
0.0501259
0.0501245
0.0501229
0.0501208
0.0501184
0.0501155
0.0501123
0.0501087
0.0501047
0.0501004
0.0500959
0.0500911
0.0500861
0.050081
0.0500759
0.0500708
0.0500657
0.0500608
0.0500561
0.0500517
0.0500475
0.0500437
0.0500402
0.050037
0.0500341
0.0500316
0.0500291
0.0501296
0.05013
0.0501303
0.0501305
0.0501306
0.0501304
0.0501301
0.0501294
0.0501284
0.050127
0.0501252
0.0501231
0.0501204
0.0501174
0.0501139
0.05011
0.0501057
0.0501011
0.0500961
0.0500909
0.0500855
0.0500799
0.0500743
0.0500687
0.0500631
0.0500578
0.0500526
0.0500478
0.0500432
0.050039
0.0500352
0.0500318
0.0500288
0.0500262
0.0500236
0.0501317
0.0501321
0.0501326
0.0501329
0.050133
0.0501329
0.0501325
0.0501319
0.0501308
0.0501294
0.0501275
0.0501252
0.0501224
0.0501191
0.0501154
0.0501112
0.0501065
0.0501014
0.050096
0.0500903
0.0500844
0.0500784
0.0500722
0.0500661
0.0500601
0.0500542
0.0500486
0.0500433
0.0500384
0.0500339
0.0500298
0.0500262
0.050023
0.0500204
0.0500177
0.0501338
0.0501343
0.0501348
0.0501352
0.0501354
0.0501353
0.050135
0.0501343
0.0501332
0.0501317
0.0501297
0.0501272
0.0501242
0.0501207
0.0501166
0.0501121
0.050107
0.0501015
0.0500957
0.0500895
0.050083
0.0500764
0.0500697
0.0500631
0.0500565
0.0500501
0.0500441
0.0500384
0.0500331
0.0500282
0.0500239
0.0500201
0.0500168
0.050014
0.0500113
0.0501357
0.0501363
0.050137
0.0501374
0.0501377
0.0501377
0.0501373
0.0501367
0.0501355
0.0501339
0.0501318
0.0501292
0.0501259
0.0501221
0.0501177
0.0501128
0.0501073
0.0501014
0.050095
0.0500882
0.0500812
0.050074
0.0500668
0.0500595
0.0500524
0.0500456
0.050039
0.0500329
0.0500272
0.050022
0.0500175
0.0500135
0.05001
0.0500072
0.0500045
0.0501377
0.0501384
0.0501391
0.0501396
0.0501399
0.05014
0.0501397
0.050139