/*--------------------------------*- C++ -*----------------------------------*\
  =========                 |
  \\      /  F ield         | OpenFOAM: The Open Source CFD Toolbox
   \\    /   O peration     | Website:  https://openfoam.org
    \\  /    A nd           | Version:  10
     \\/     M anipulation  |
\*---------------------------------------------------------------------------*/
FoamFile
{
    format      ascii;
    class       surfaceScalarField;
    location    "1244";
    object      phi;
}
// * * * * * * * * * * * * * * * * * * * * * * * * * * * * * * * * * * * * * //

dimensions      [0 3 -1 0 0 0 0];

internalField   nonuniform List<scalar> 
30343
(
0.000111161
-3.23989e-05
3.72111e-05
-0.000115974
0.000107306
-1.9308e-05
2.31634e-05
0.000103269
-5.4769e-06
9.51361e-06
9.89922e-05
9.52384e-06
-5.2467e-06
9.44716e-05
2.59307e-05
-2.14101e-05
8.96906e-05
4.38947e-05
-3.91138e-05
8.46407e-05
6.35981e-05
-5.85481e-05
7.93154e-05
8.52308e-05
-7.99055e-05
7.3709e-05
0.000109002
-0.000103395
6.7821e-05
0.000135133
-0.000129245
6.16472e-05
0.000163857
-0.000157684
5.5187e-05
0.000195418
-0.000188958
4.84408e-05
0.000230065
-0.000223319
4.14118e-05
0.000268078
-0.000261049
3.41077e-05
0.000309636
-0.000302332
2.65373e-05
0.000355054
-0.000347484
1.87165e-05
0.000404544
-0.000396723
1.06663e-05
0.000458318
-0.000450268
2.41346e-06
0.000516563
-0.00050831
-6.00744e-06
0.000579417
-0.000570996
-1.45549e-05
0.00064698
-0.000638433
-2.31792e-05
0.000719288
-0.000710664
-3.18212e-05
0.000796315
-0.000787673
-4.04138e-05
0.000877921
-0.000869329
-4.88777e-05
0.000963921
-0.000955457
-5.71116e-05
0.00105399
-0.00104576
0.00114766
-0.00113989
-6.48814e-05
0.000110607
-2.86857e-05
-0.00011432
0.000106913
-1.56138e-05
0.000102943
-1.50732e-06
9.86763e-05
1.37909e-05
9.4128e-05
3.04791e-05
8.9304e-05
4.87187e-05
8.4205e-05
6.86971e-05
7.88295e-05
9.06064e-05
7.31756e-05
0.000114656
6.72427e-05
0.000141066
6.10292e-05
0.000170071
5.45354e-05
0.000201912
4.77631e-05
0.000236837
4.07158e-05
0.000275125
3.34022e-05
0.00031695
2.58326e-05
0.000362624
1.80231e-05
0.000412354
9.99493e-06
0.000466346
1.77527e-06
0.000524783
-6.60064e-06
0.000587793
-1.50902e-05
0.00065547
-2.36431e-05
0.000727841
-3.21995e-05
0.000804871
-4.06887e-05
0.000886411
-4.90236e-05
0.000972256
-5.70931e-05
0.00106206
0.00115534
-6.47748e-05
0.000110519
-2.50924e-05
-0.000114112
0.000106738
-1.18335e-05
0.000102708
2.52268e-06
9.83971e-05
1.81021e-05
9.38053e-05
3.50708e-05
8.89364e-05
5.35876e-05
8.37913e-05
7.38422e-05
7.83701e-05
9.60276e-05
7.26725e-05
0.000120353
6.66987e-05
0.00014704
6.04486e-05
0.000176321
5.39239e-05
0.000208437
4.71273e-05
0.000243634
4.00637e-05
0.000282189
3.27428e-05
0.00032427
2.51763e-05
0.00037019
1.73814e-05
0.000420149
9.38036e-06
0.000474347
1.20158e-06
0.000532961
-7.11934e-06
0.000596114
-1.55395e-05
0.00066389
-2.40081e-05
0.00073631
-3.24651e-05
0.000813329
-4.08409e-05
0.000894786
-4.90539e-05
0.000980469
-5.70121e-05
0.00107002
0.00116295
-6.46278e-05
0.000110468
-2.14937e-05
-0.000114067
0.000106623
-7.98825e-06
0.000102525
6.62068e-06
9.81569e-05
2.247e-05
9.35147e-05
3.9713e-05
8.85986e-05
5.85036e-05
8.34086e-05
7.90322e-05
7.79447e-05
0.000101491
7.22075e-05
0.00012609
6.61974e-05
0.00015305
5.99157e-05
0.000182603
5.33645e-05
0.000214988
4.65478e-05
0.000250451
3.94713e-05
0.000289266
3.21455e-05
0.000331596
2.45832e-05
0.000377753
1.68022e-05
0.00042793
8.82571e-06
0.000482324
6.82943e-07
0.000541104
-7.59002e-06
0.000604387
-1.59499e-05
0.00067225
-2.43454e-05
0.000744705
-3.27167e-05
0.0008217
-4.09948e-05
0.000903065
-4.91022e-05
0.000988576
-5.69555e-05
0.00107787
0.00117047
-6.44753e-05
0.000110416
-1.78637e-05
-0.000114046
0.000106518
-4.08977e-06
0.000102358
1.078e-05
9.79325e-05
2.68957e-05
9.32372e-05
4.44083e-05
8.82721e-05
6.34688e-05
8.30364e-05
8.42679e-05
7.75304e-05
0.000106997
7.17548e-05
0.000131866
6.57108e-05
0.000159094
5.94e-05
0.000188913
5.28256e-05
0.000221562
4.59922e-05
0.000257284
3.89064e-05
0.000296351
3.15795e-05
0.000338923
2.40249e-05
0.000385307
1.62612e-05
0.000435693
8.31202e-06
0.000490273
2.07171e-07
0.000549209
-8.01691e-06
0.000612611
-1.63166e-05
0.00068055
-2.46405e-05
0.000753029
-3.29291e-05
0.000829988
-4.11146e-05
0.00091125
-4.91222e-05
0.000996584
-5.68736e-05
0.00108562
0.00117789
-6.42943e-05
0.000110263
-1.4194e-05
-0.000113933
0.000106318
-1.44986e-07
0.000102107
1.4991e-05
9.76302e-05
3.13725e-05
9.28867e-05
4.91518e-05
8.7877e-05
6.84786e-05
8.26006e-05
8.95443e-05
7.70582e-05
0.00011254
7.12505e-05
0.000137674
6.51793e-05
0.000165166
5.88469e-05
0.000195246
5.22572e-05
0.000228152
4.54154e-05
0.000264126
3.83289e-05
0.000303438
3.10098e-05
0.000346242
2.34721e-05
0.000392845
1.5735e-05
0.000443431
7.8227e-06
0.000498185
-2.34615e-07
0.000557266
-8.40023e-06
0.000620777
-1.66304e-05
0.00068878
-2.48739e-05
0.000761273
-3.3072e-05
0.000838187
-4.11585e-05
0.000919337
-4.90619e-05
0.00100449
-5.67083e-05
0.00109327
0.00118521
-6.40273e-05
0.000110313
-1.04714e-05
-0.000114036
0.000106315
3.8531e-06
0.000102048
1.9258e-05
9.75151e-05
3.59055e-05
9.27168e-05
5.39502e-05
8.76548e-05
7.35406e-05
8.23293e-05
9.48698e-05
7.67414e-05
0.000118128
7.08924e-05
0.000143523
6.47846e-05
0.000171273
5.84208e-05
0.00020161
5.18055e-05
0.000234767
4.49448e-05
0.000270987
3.78467e-05
0.000310536
3.05239e-05
0.000353565
2.29912e-05
0.000400378
1.52682e-05
0.000451154
7.37985e-06
0.000506073
-6.43459e-07
0.00056529
-8.76467e-06
0.000628898
-1.694e-05
0.000696955
-2.51185e-05
0.000769451
-3.32424e-05
0.00084631
-4.12472e-05
0.000927341
-4.90641e-05
0.0010123
-5.66227e-05
0.00110083
0.00119245
-6.38554e-05
0.000110262
-6.69846e-06
-0.000114035
0.000106214
7.90027e-06
0.000101898
2.35746e-05
9.73154e-05
4.04879e-05
9.24691e-05
5.87965e-05
8.73614e-05
7.86483e-05
8.19935e-05
0.000100238
7.63669e-05
0.000123754
7.04836e-05
0.000149406
6.43465e-05
0.000177411
5.7959e-05
0.000207997
5.13262e-05
0.0002414
4.44548e-05
0.000277858
3.73535e-05
0.000317637
3.00357e-05
0.000360883
2.25166e-05
0.000407897
1.48165e-05
0.000458854
6.96062e-06
0.000513929
-1.02023e-06
0.000573271
-9.08894e-06
0.000636967
-1.72018e-05
0.000705068
-2.53085e-05
0.000777558
-3.33522e-05
0.000854354
-4.12701e-05
0.000935259
-4.8996e-05
0.00102003
-5.64621e-05
0.00110829
0.00119959
-6.36028e-05
0.000110207
-2.87588e-06
-0.000114029
0.000106112
1.19954e-05
0.000101748
2.79387e-05
9.71184e-05
4.51172e-05
9.22266e-05
6.36883e-05
8.70756e-05
8.37992e-05
8.16674e-05
0.000105646
7.60041e-05
0.000129418
7.00885e-05
0.000155321
6.39239e-05
0.000183575
5.75146e-05
0.000214406
5.08661e-05
0.000248049
4.39859e-05
0.000284738
3.68832e-05
0.00032474
2.9572e-05
0.000368194
2.20682e-05
0.0004154
1.43924e-05
0.000466529
6.5702e-06
0.000521751
-1.36734e-06
0.000581208
-9.38307e-06
0.000644982
-1.74336e-05
0.000713119
-2.54691e-05
0.000785594
-3.34338e-05
0.000862319
-4.12668e-05
0.000943092
-4.89036e-05
0.00102767
-5.6279e-05
0.00111567
0.00120664
-6.3329e-05
0.000110146
9.94358e-07
-0.000114017
0.000106005
1.61367e-05
0.000101596
3.23482e-05
9.69219e-05
4.97908e-05
9.19872e-05
6.8623e-05
8.67954e-05
8.8991e-05
8.13492e-05
0.000111092
7.56515e-05
0.000135115
6.97056e-05
0.000161267
6.35156e-05
0.000189765
5.70864e-05
0.000220836
5.04241e-05
0.000254711
4.35369e-05
0.000291625
3.64345e-05
0.000331843
2.91316e-05
0.000375497
2.16444e-05
0.000422888
1.39942e-05
0.00047418
6.20667e-06
0.000529539
-1.68685e-06
0.000589102
-9.64929e-06
0.000652945
-1.76376e-05
0.000721107
-2.56025e-05
0.000793559
-3.34895e-05
0.000870206
-4.1239e-05
0.000950842
-4.87887e-05
0.00103522
-5.60749e-05
0.00112296
0.0012136
-6.30355e-05
0.000110077
4.90962e-06
-0.000113992
0.000105892
2.0322e-05
0.000101439
3.68007e-05
9.67238e-05
5.45064e-05
9.17487e-05
7.35981e-05
8.65187e-05
9.4221e-05
8.10369e-05
0.000116574
7.53071e-05
0.000140845
6.93333e-05
0.000167241
6.312e-05
0.000195978
5.66729e-05
0.000227283
4.99987e-05
0.000261385
4.31063e-05
0.000298518
3.60059e-05
0.000338943
2.87128e-05
0.00038279
2.12437e-05
0.000430357
1.36201e-05
0.000481803
5.86819e-06
0.000537291
-1.98073e-06
0.000596951
-9.88966e-06
0.000660854
-1.78159e-05
0.000729033
-2.57109e-05
0.000801454
-3.35212e-05
0.000878016
-4.11887e-05
0.000958509
-4.86527e-05
0.00104268
-5.58512e-05
0.00113015
0.00122047
-6.27235e-05
0.000109996
8.86711e-06
-0.000113954
0.000105769
2.45486e-05
0.000101277
4.12936e-05
9.65217e-05
5.92612e-05
9.15089e-05
7.86109e-05
8.62432e-05
9.94866e-05
8.07285e-05
0.000122089
7.49691e-05
0.000146605
6.89696e-05
0.00017324
6.27353e-05
0.000202213
5.62723e-05
0.000233746
4.95883e-05
0.000268069
4.26924e-05
0.000305414
3.55957e-05
0.00034604
2.83139e-05
0.000390072
2.08642e-05
0.000437806
1.32684e-05
0.000489399
5.55287e-06
0.000545006
-2.25093e-06
0.000604754
-1.01062e-05
0.000668709
-1.79706e-05
0.000736898
-2.57963e-05
0.000809279
-3.35309e-05
0.000885751
-4.11176e-05
0.000966096
-4.84971e-05
0.00105006
-5.56092e-05
0.00113727
0.00122725
-6.23943e-05
0.0001099
1.28638e-05
-0.000113897
0.000105635
2.88138e-05
0.000101104
4.58243e-05
9.6313e-05
6.40526e-05
9.12652e-05
8.36587e-05
8.59666e-05
0.000104785
8.04216e-05
0.000127634
7.46351e-05
0.000152391
6.86124e-05
0.000179263
6.23593e-05
0.000208466
5.58828e-05
0.000240222
4.91908e-05
0.000274761
4.22935e-05
0.000312311
3.52022e-05
0.000353131
2.79331e-05
0.000397341
2.0504e-05
0.000445236
1.29371e-05
0.000496966
5.25877e-06
0.000552685
-2.49943e-06
0.000612513
-1.03009e-05
0.00067651
-1.81036e-05
0.0007447
-2.58606e-05
0.000817036
-3.35204e-05
0.000893411
-4.10273e-05
0.000973603
-4.83235e-05
0.00105736
-5.53503e-05
0.00114429
0.00123395
-6.20492e-05
0.000109786
1.68964e-05
-0.000113818
0.000105485
3.31145e-05
0.00010092
5.03897e-05
9.60948e-05
6.88775e-05
9.1015e-05
8.87385e-05
8.56863e-05
0.000110114
8.01138e-05
0.000133206
7.43029e-05
0.000158202
6.82595e-05
0.000185307
6.199e-05
0.000214735
5.55021e-05
0.00024671
4.88044e-05
0.000281459
4.19074e-05
0.000319208
3.48232e-05
0.000360215
2.75685e-05
0.000404596
2.01614e-05
0.000452643
1.26242e-05
0.000504503
4.98391e-06
0.000560325
-2.72821e-06
0.000620225
-1.04756e-05
0.000684258
-1.82169e-05
0.000752442
-2.59056e-05
0.000824725
-3.34912e-05
0.000900996
-4.09193e-05
0.000981031
-4.81333e-05
0.00106457
-5.50757e-05
0.00115124
0.00124057
-6.16895e-05
0.00010965
2.09614e-05
-0.000113715
0.000105317
3.74474e-05
0.00010072
5.49866e-05
9.58642e-05
7.3733e-05
9.07553e-05
9.38475e-05
8.53996e-05
0.00011547
7.98024e-05
0.000138803
7.39698e-05
0.000164035
6.79083e-05
0.000191368
6.16251e-05
0.000221018
5.51281e-05
0.000253207
4.84268e-05
0.00028816
4.15321e-05
0.000326103
3.44568e-05
0.00036729
2.7218e-05
0.000411834
1.98341e-05
0.000460027
1.23279e-05
0.000512009
4.72632e-06
0.000567926
-2.93922e-06
0.00062789
-1.06325e-05
0.000691951
-1.83123e-05
0.000760121
-2.59332e-05
0.000832346
-3.34453e-05
0.000908508
-4.07953e-05
0.000988381
-4.79279e-05
0.0010717
-5.47868e-05
0.00115809
0.0012471
-6.13163e-05
0.000109487
2.50556e-05
-0.000113582
0.000105126
4.18091e-05
0.000100501
5.96117e-05
9.5618e-05
7.86157e-05
9.04832e-05
9.89822e-05
8.51035e-05
0.000120849
7.94846e-05
0.000144422
7.36333e-05
0.000169886
6.75565e-05
0.000197445
6.1262e-05
0.000227313
5.47584e-05
0.000259711
4.80556e-05
0.000294863
4.11654e-05
0.000332993
3.41008e-05
0.000374355
2.68794e-05
0.000419056
1.95201e-05
0.000467386
1.20459e-05
0.000519484
4.48398e-06
0.000575488
-3.13444e-06
0.000635509
-1.07732e-05
0.00069959
-1.83918e-05
0.00076774
-2.5945e-05
0.000839899
-3.33841e-05
0.000915947
-4.06567e-05
0.000995653
-4.77087e-05
0.00107875
-5.4485e-05
0.00116487
0.00125354
-6.0931e-05
0.000109196
2.91711e-05
-0.000113311
0.000104813
4.61917e-05
0.000100167
6.42572e-05
9.52654e-05
8.35178e-05
9.01129e-05
0.000104135
8.47173e-05
0.000126245
7.90851e-05
0.000150054
7.32234e-05
0.000175748
6.71398e-05
0.000203529
6.08425e-05
0.00023361
5.43407e-05
0.000266213
4.76451e-05
0.000301559
4.07677e-05
0.00033987
3.37221e-05
0.000381401
2.65264e-05
0.000426251
1.91999e-05
0.000474713
1.17657e-05
0.000526918
4.25104e-06
0.000583003
-3.31275e-06
0.000643072
-1.08899e-05
0.000707167
-1.84401e-05
0.00077529
-2.59191e-05
0.000847378
-3.32788e-05
0.000923307
-4.0468e-05
0.00100284
-4.74337e-05
0.00108572
-5.41219e-05
0.00117156
0.0012599
-6.04794e-05
0.000109071
3.33114e-05
-0.000113211
0.000104663
5.05998e-05
9.99919e-05
6.89279e-05
9.50652e-05
8.84445e-05
8.98889e-05
0.000109311
8.4471e-05
0.000131663
7.88184e-05
0.000155707
7.29386e-05
0.000181627
6.684e-05
0.000209627
6.05311e-05
0.000239919
5.4022e-05
0.000272722
4.73235e-05
0.000308257
4.04485e-05
0.000346745
3.3411e-05
0.000388438
2.62296e-05
0.000433433
1.89238e-05
0.000482018
1.15172e-05
0.000534324
4.03702e-06
0.000590483
-3.48535e-06
0.000650595
-1.10143e-05
0.000714696
-1.85099e-05
0.000782786
-2.59285e-05
0.000854797
-3.32227e-05
0.000930601
-4.03421e-05
0.00100996
-4.72348e-05
0.00109261
-5.38479e-05
0.00117817
0.00126618
-6.01291e-05
0.000108808
3.74694e-05
-0.000112966
0.000104382
5.50252e-05
9.96945e-05
7.36158e-05
9.47513e-05
9.33876e-05
8.95596e-05
0.000114503
8.41279e-05
0.000137095
7.84634e-05
0.000161372
7.25743e-05
0.000187517
6.64692e-05
0.000215732
6.01575e-05
0.000246231
5.36496e-05
0.00027923
4.69571e-05
0.00031495
4.0093e-05
0.000353609
3.30722e-05
0.000395459
2.59134e-05
0.000440592
1.86367e-05
0.000489295
1.12657e-05
0.000541695
3.82803e-06
0.000597921
-3.6452e-06
0.000658068
-1.11185e-05
0.000722169
-1.85524e-05
0.00079022
-2.59036e-05
0.000862148
-3.31257e-05
0.000937823
-4.0169e-05
0.00101701
-4.69827e-05
0.00109943
-5.35149e-05
0.0011847
0.00127238
-5.97145e-05
0.000108503
4.16405e-05
-0.000112674
0.000104064
5.94641e-05
9.93632e-05
7.83168e-05
9.44075e-05
9.83434e-05
8.92042e-05
0.000119706
8.37623e-05
0.000142536
7.80895e-05
0.000167044
7.21944e-05
0.000193412
6.60862e-05
0.000221841
5.97748e-05
0.000252542
5.3271e-05
0.000285733
4.65869e-05
0.000321634
3.97363e-05
0.00036046
3.27342e-05
0.000402461
2.56001e-05
0.000447726
1.8354e-05
0.000496541
1.10201e-05
0.000549029
3.62597e-06
0.000605315
-3.79728e-06
0.000665491
-1.12143e-05
0.000729586
-1.85861e-05
0.000797592
-2.58699e-05
0.000869432
-3.30199e-05
0.000944973
-3.99874e-05
0.00102397
-4.67224e-05
0.00110616
-5.31741e-05
0.00119116
0.0012785
-5.92926e-05
0.000108152
4.58206e-05
-0.000112332
0.000103704
6.39121e-05
9.89942e-05
8.30268e-05
9.403e-05
0.000103308
8.88191e-05
0.000124917
8.33708e-05
0.000147985
7.76934e-05
0.000172722
7.17959e-05
0.000199309
6.56879e-05
0.000227948
5.93798e-05
0.00025885
5.28831e-05
0.00029223
4.62103e-05
0.000328306
3.93756e-05
0.000367295
3.23946e-05
0.000409442
2.5287e-05
0.000454833
1.80734e-05
0.000503755
1.07781e-05
0.000556325
3.42868e-06
0.000612665
-3.94364e-06
0.000672864
-1.13038e-05
0.000736946
-1.8613e-05
0.000804901
-2.58291e-05
0.000876648
-3.29069e-05
0.000952051
-3.97987e-05
0.00103086
-4.64552e-05
0.00111282
-5.28268e-05
0.00119753
0.00128454
-5.88644e-05
0.000107751
5.00055e-05
-0.000111936
0.000103298
6.8365e-05
9.85834e-05
8.77415e-05
9.36149e-05
0.000108276
8.84004e-05
0.000130131
8.29498e-05
0.000153435
7.72716e-05
0.0001784
7.13753e-05
0.000205205
6.5271e-05
0.000234053
5.89696e-05
0.000265152
5.2483e-05
0.000298717
4.58243e-05
0.000334965
3.90082e-05
0.000374111
3.20507e-05
0.0004164
2.49718e-05
0.000461912
1.77926e-05
0.000510934
1.05374e-05
0.00056358
3.23402e-06
0.000619968
-4.08632e-06
0.000680184
-1.13887e-05
0.000744249
-1.86348e-05
0.000812147
-2.57829e-05
0.000883796
-3.27885e-05
0.000959056
-3.96044e-05
0.00103768
-4.61826e-05
0.0011194
-5.24742e-05
0.00120382
0.00129049
-5.84311e-05
0.000107295
5.41904e-05
-0.00011148
0.000102842
7.28181e-05
9.81266e-05
9.24566e-05
9.31581e-05
0.000113245
8.79444e-05
0.000135345
8.24955e-05
0.000158884
7.68205e-05
0.000184075
7.09292e-05
0.000211097
6.48323e-05
0.00024015
5.85411e-05
0.000271443
5.20679e-05
0.00030519
4.54263e-05
0.000341607
3.86315e-05
0.000380905
3.16999e-05
0.000423331
2.4652e-05
0.00046896
1.7509e-05
0.000518077
1.02957e-05
0.000570793
3.03981e-06
0.000627224
-4.22738e-06
0.000687451
-1.14712e-05
0.000751493
-1.86535e-05
0.000819329
-2.5733e-05
0.000890876
-3.2666e-05
0.000965989
-3.9406e-05
0.00104442
-4.59058e-05
0.0011259
-5.21175e-05
0.00121003
0.00129637
-5.79939e-05
0.000106779
5.83705e-05
-0.000110959
0.00010233
7.72669e-05
9.76197e-05
9.71674e-05
9.26557e-05
0.000118209
8.74471e-05
0.000140554
8.20042e-05
0.000164327
7.63365e-05
0.000189743
7.04542e-05
0.000216979
6.43684e-05
0.000246235
5.80909e-05
0.00027772
5.16345e-05
0.000311646
4.50131e-05
0.000348228
3.82425e-05
0.000387676
3.13395e-05
0.000430234
2.4325e-05
0.000475975
1.72204e-05
0.000525182
1.00507e-05
0.000577963
2.84387e-06
0.000634431
-4.36888e-06
0.000694664
-1.1553e-05
0.000758677
-1.86707e-05
0.000826447
-2.56811e-05
0.000897886
-3.25411e-05
0.000972849
-3.92049e-05
0.00105108
-4.56262e-05
0.00113232
-5.17579e-05
0.00121616
0.00130217
-5.75539e-05
0.0001062
6.25412e-05
-0.000110371
0.00010176
8.17067e-05
9.70583e-05
0.000101869
9.21035e-05
0.000123164
8.69045e-05
0.000145753
8.1472e-05
0.000169759
7.58159e-05
0.000195399
6.99468e-05
0.000222848
6.3876e-05
0.000252306
5.76159e-05
0.00028398
5.11797e-05
0.000318083
4.45819e-05
0.000354826
3.78386e-05
0.000394419
3.09669e-05
0.000437106
2.39881e-05
0.000482953
1.69241e-05
0.000532246
9.80007e-06
0.000585087
2.64401e-06
0.000641587
-4.51288e-06
0.000701821
-1.16361e-05
0.0007658
-1.86883e-05
0.000833499
-2.56289e-05
0.000904827
-3.24153e-05
0.000979636
-3.90026e-05
0.00105767
-4.53451e-05
0.00113866
-5.13967e-05
0.00122221
0.00130788
-5.71121e-05
0.000105552
6.66976e-05
-0.000109708
0.000101126
8.61325e-05
9.64381e-05
0.000106557
9.14973e-05
0.000128104
8.63126e-05
0.000150937
8.08952e-05
0.000175177
7.5255e-05
0.000201039
6.94032e-05
0.0002287
6.33517e-05
0.000258358
5.71129e-05
0.000290219
5.07005e-05
0.000324495
4.41297e-05
0.000361397
3.74167e-05
0.000401132
3.05792e-05
0.000443943
2.36389e-05
0.000489894
1.66179e-05
0.000539267
9.54154e-06
0.000592163
2.43803e-06
0.00064869
-4.66145e-06
0.00070892
-1.17226e-05
0.000772861
-1.87081e-05
0.000840485
-2.55781e-05
0.000911697
-3.22902e-05
0.000986348
-3.88005e-05
0.00106418
-4.50638e-05
0.00114492
-5.10349e-05
0.00122819
0.00131352
-5.66696e-05
0.000104831
7.08349e-05
-0.000108968
0.000100424
9.05393e-05
9.57549e-05
0.000111226
9.08329e-05
0.000133026
8.56674e-05
0.000156103
8.02696e-05
0.000180575
7.46501e-05
0.000206659
6.88201e-05
0.00023453
6.27918e-05
0.000264386
5.65784e-05
0.000296433
5.01937e-05
0.00033088
4.36533e-05
0.000367937
3.6974e-05
0.000407812
3.01739e-05
0.000450743
2.32748e-05
0.000496793
1.62992e-05
0.000546242
9.27275e-06
0.00059919
2.22375e-06
0.000655739
-4.81664e-06
0.000715961
-1.18142e-05
0.000779859
-1.87319e-05
0.000847402
-2.55302e-05
0.000918495
-3.21674e-05
0.000992985
-3.85999e-05
0.00107061
-4.47835e-05
0.00115111
-5.06739e-05
0.00123408
0.00131907
-5.62275e-05
0.000103937
7.49436e-05
-0.000108046
9.95583e-05
9.49179e-05
9.49174e-05
0.000115867
9.00239e-05
0.00013792
8.48872e-05
0.000161239
7.95189e-05
0.000185943
7.39298e-05
0.000212248
6.81314e-05
0.000240328
6.21364e-05
0.000270381
5.5958e-05
0.000302611
4.96108e-05
0.000337227
4.31105e-05
0.000374437
3.64744e-05
0.000414448
2.97209e-05
0.000457497
2.28722e-05
0.000503641
1.59511e-05
0.000553163
8.98326e-06
0.000606157
1.99723e-06
0.000662725
-4.97586e-06
0.000722934
-1.19019e-05
0.000786785
-1.87442e-05
0.000854245
-2.54636e-05
0.000925214
-3.20189e-05
0.00099954
-3.83671e-05
0.00107696
-4.44649e-05
0.0011572
-5.02686e-05
0.00123988
0.00132454
-5.57358e-05
0.000103151
7.90257e-05
-0.000107234
9.87983e-05
9.92709e-05
9.41824e-05
0.000120483
8.93135e-05
0.000142789
8.42013e-05
0.000166352
7.88577e-05
0.000191287
7.32935e-05
0.000217812
6.75208e-05
0.000246101
6.15525e-05
0.000276349
5.54022e-05
0.000308761
4.90849e-05
0.000343544
4.26167e-05
0.000380906
3.60152e-05
0.000421049
2.92992e-05
0.000464213
2.24914e-05
0.000510449
1.56148e-05
0.00056004
8.69535e-06
0.000613077
1.7617e-06
0.000669659
-5.15492e-06
0.00072985
-1.20205e-05
0.00079365
-1.87985e-05
0.000861022
-2.545e-05
0.000931866
-3.19343e-05
0.00100602
-3.8209e-05
0.00108324
-4.42314e-05
0.00116323
-4.99585e-05
0.00124561
0.00132993
-5.53486e-05
0.000102183
8.30728e-05
-0.00010623
9.7865e-05
0.000103589
9.32837e-05
0.000125064
8.84492e-05
0.000147623
8.33715e-05
0.000171429
7.80626e-05
0.000196595
7.25336e-05
0.000223341
6.67968e-05
0.000251838
6.08654e-05
0.000282281
5.47534e-05
0.000314873
4.8476e-05
0.000349822
4.20498e-05
0.000387332
3.54927e-05
0.000427606
2.88241e-05
0.000470882
2.20667e-05
0.000517207
1.52438e-05
0.000566863
8.38183e-06
0.000619939
1.50939e-06
0.000676531
-5.34222e-06
0.000736702
-1.21391e-05
0.000800447
-1.88448e-05
0.000867728
-2.54208e-05
0.000938442
-3.18269e-05
0.00101243
-3.80212e-05
0.00108943
-4.39616e-05
0.00116917
-4.96059e-05
0.00125125
0.00133524
-5.49133e-05
0.000101123
8.7079e-05
-0.000105129
9.68454e-05
0.000107867
9.23043e-05
0.000129605
8.75098e-05
0.000152418
8.2472e-05
0.000176467
7.72031e-05
0.000201864
7.17144e-05
0.00022883
6.60185e-05
0.000257534
6.01288e-05
0.000288171
5.40596e-05
0.000320942
4.78266e-05
0.000356055
4.14466e-05
0.000393712
3.49379e-05
0.000434115
2.83201e-05
0.000477499
2.16165e-05
0.00052391
1.48505e-05
0.000573629
8.04879e-06
0.000626741
1.24009e-06
0.00068334
-5.54424e-06
0.000743486
-1.22703e-05
0.000807173
-1.8902e-05
0.00087436
-2.5401e-05
0.000944941
-3.17275e-05
0.00101876
-3.78402e-05
0.00109554
-4.36976e-05
0.00117502
-4.92583e-05
0.00125681
0.00134046
-5.4482e-05
9.99668e-05
9.10387e-05
-0.000103927
9.57352e-05
0.000112098
9.12399e-05
0.000134101
8.6491e-05
0.000157167
8.14986e-05
0.000181459
7.62752e-05
0.000207088
7.08321e-05
0.000234273
6.51822e-05
0.000263183
5.93392e-05
0.000294014
5.33177e-05
0.000326964
4.71335e-05
0.000362239
4.0804e-05
0.000400041
3.43477e-05
0.000440571
2.77846e-05
0.000484062
2.11383e-05
0.000530557
1.44325e-05
0.000580334
7.69394e-06
0.000633479
9.51679e-07
0.000690082
-5.76296e-06
0.000750201
-1.24161e-05
0.000813826
-1.89718e-05
0.000880916
-2.53921e-05
0.000951361
-3.16375e-05
0.001025
-3.76673e-05
0.00110157
-4.34405e-05
0.0011808
-4.89165e-05
0.00126229
0.0013456
-5.40557e-05
9.87096e-05
9.49459e-05
-0.000102617
9.45299e-05
0.000116278
9.00862e-05
0.000138544
8.53885e-05
0.000161865
8.04473e-05
0.000186401
7.52748e-05
0.00021226
6.98828e-05
0.000239665
6.42843e-05
0.000268782
5.84931e-05
0.000299805
5.25241e-05
0.000332933
4.63936e-05
0.000368369
4.0119e-05
0.000406316
3.37193e-05
0.000446971
2.72149e-05
0.000490567
2.06295e-05
0.000537142
1.39873e-05
0.000586977
7.31505e-06
0.000640151
6.42069e-07
0.000696755
-6.00028e-06
0.000756843
-1.25782e-05
0.000820404
-1.90559e-05
0.000887393
-2.53956e-05
0.000957701
-3.15582e-05
0.00103117
-3.75036e-05
0.00110752
-4.31913e-05
0.00118649
-4.85814e-05
0.00126768
0.00135065
-5.3635e-05
9.73469e-05
9.87947e-05
-0.000101196
9.3225e-05
0.0001204
8.88388e-05
0.000142931
8.41983e-05
0.000166505
7.9314e-05
0.000191285
7.41982e-05
0.000217376
6.88629e-05
0.000245
6.33211e-05
0.000274324
5.7587e-05
0.000305539
5.16757e-05
0.000338844
4.56036e-05
0.000374441
3.93885e-05
0.000412531
3.30499e-05
0.000453309
2.66083e-05
0.000497009
2.00876e-05
0.000543663
1.35125e-05
0.000593552
6.90991e-06
0.000646754
3.09215e-07
0.000703356
-6.25811e-06
0.000763411
-1.27583e-05
0.000826904
-1.91557e-05
0.000893791
-2.54128e-05
0.000963958
-3.14909e-05
0.00103724
-3.73503e-05
0.00111338
-4.29511e-05
0.00119209
-4.82539e-05
0.00127298
0.00135562
-5.32207e-05
9.58742e-05
0.00010258
-9.96591e-05
9.18162e-05
0.000124458
8.74934e-05
0.000147253
8.29161e-05
0.000171082
7.80946e-05
0.000196106
7.30414e-05
0.000222429
6.77685e-05
0.000250273
6.22891e-05
0.000279803
5.66175e-05
0.000311211
5.0769e-05
0.000344693
4.47604e-05
0.00038045
3.86097e-05
0.000418682
3.23366e-05
0.000459582
2.5962e-05
0.000503383
1.95102e-05
0.000550114
1.30058e-05
0.000600056
6.47634e-06
0.000653284
-4.88851e-08
0.000709881
-6.53828e-06
0.0007699
-1.29581e-05
0.000833324
-1.92728e-05
0.000900105
-2.54452e-05
0.00097013
-3.14368e-05
0.00104323
-3.72083e-05
0.00111915
-4.27206e-05
0.0011976
-4.79348e-05
0.00127819
0.0013605
-5.28135e-05
9.42871e-05
0.000106294
-9.80017e-05
9.0299e-05
0.000128446
8.60459e-05
0.000151506
8.15378e-05
0.00017559
7.67852e-05
0.000200859
7.18006e-05
0.000227414
6.6596e-05
0.000255478
6.11847e-05
0.000285214
5.55811e-05
0.000316814
4.98009e-05
0.000350473
4.38609e-05
0.00038639
3.77795e-05
0.000424763
3.15767e-05
0.000465785
2.52735e-05
0.000509686
1.88947e-05
0.000556493
1.24651e-05
0.000606486
6.01224e-06
0.000659736
-4.3418e-07
0.000716327
-6.84258e-06
0.000776308
-1.31792e-05
0.000839661
-1.94087e-05
0.000906335
-2.54939e-05
0.000976216
-3.1397e-05
0.00104914
-3.70788e-05
0.00112483
-4.25008e-05
0.00120302
-4.76247e-05
0.00128332
0.00136529
-5.24138e-05
9.25812e-05
0.000109932
-9.62193e-05
8.86693e-05
0.000132358
8.4492e-05
0.000155684
8.00594e-05
0.000180023
7.53819e-05
0.000205536
7.0472e-05
0.000232324
6.53417e-05
0.000260608
6.00043e-05
0.000290552
5.44746e-05
0.000322344
4.87681e-05
0.000356179
4.29021e-05
0.000392256
3.68951e-05
0.00043077
3.07674e-05
0.000471913
2.45403e-05
0.000515913
1.82387e-05
0.000562795
1.18879e-05
0.000612837
5.51554e-06
0.000666109
-8.48558e-07
0.000722692
-7.17271e-06
0.000782632
-1.34232e-05
0.000845911
-1.95647e-05
0.000912476
-2.55604e-05
0.000982211
-3.13725e-05
0.00105495
-3.69626e-05
0.00113042
-4.22924e-05
0.00120835
-4.73244e-05
0.00128835
0.00136998
-5.20223e-05
9.07523e-05
0.000113488
-9.43082e-05
8.69227e-05
0.000136187
8.28276e-05
0.000159779
7.84769e-05
0.000184374
7.38808e-05
0.000210133
6.90519e-05
0.000237153
6.4002e-05
0.000265658
5.87447e-05
0.000295809
5.32946e-05
0.000327794
4.76676e-05
0.000361806
4.1881e-05
0.000398042
3.59536e-05
0.000436697
2.9906e-05
0.000477961
2.37597e-05
0.00052206
1.75399e-05
0.000569015
1.12721e-05
0.000619104
4.98424e-06
0.000672397
-1.29384e-06
0.00072897
-7.53034e-06
0.000788869
-1.36915e-05
0.000852073
-1.97422e-05
0.000918527
-2.56456e-05
0.000988115
-3.13645e-05
0.00106067
-3.68606e-05
0.00113592
-4.20962e-05
0.00121359
-4.70343e-05
0.00129329
0.00137459
-5.16393e-05
8.87155e-05
0.000116951
-9.21789e-05
8.49782e-05
0.000139925
8.09754e-05
0.000163782
7.67168e-05
0.000188632
7.22127e-05
0.000214637
6.74754e-05
0.00024189
6.25168e-05
0.000270616
5.73503e-05
0.000300975
5.19908e-05
0.000333154
4.64541e-05
0.000367343
4.07577e-05
0.000403739
3.49208e-05
0.000442534
2.89638e-05
0.000483918
2.29088e-05
0.000528115
1.67811e-05
0.000575142
1.06063e-05
0.000625279
4.41265e-06
0.00067859
-1.76994e-06
0.000735152
-7.90959e-06
0.000795009
-1.39726e-05
0.000858136
-1.99239e-05
0.000924478
-2.57271e-05
0.000993918
-3.13449e-05
0.00106629
-3.67398e-05
0.00114131
-4.18744e-05
0.00121872
-4.67122e-05
0.00129813
0.0013791
-5.12183e-05
8.67104e-05
0.000120322
-9.00816e-05
8.30649e-05
0.00014357
7.91536e-05
0.000167693
7.4986e-05
0.0001928
7.05722e-05
0.00021905
6.59243e-05
0.000246538
6.10542e-05
0.000275487
5.59754e-05
0.000306054
5.07027e-05
0.000338426
4.52521e-05
0.000372794
3.96413e-05
0.00040935
3.38895e-05
0.000448286
2.80176e-05
0.000489789
2.20478e-05
0.000534085
1.60058e-05
0.000581184
9.91733e-06
0.000631368
3.81081e-06
0.000684697
-2.28356e-06
0.000741247
-8.33386e-06
0.000801059
-1.43064e-05
0.000864108
-2.0166e-05
0.000930338
-2.58765e-05
0.000999628
-3.14009e-05
0.00107181
-3.67019e-05
0.00114661
-4.17426e-05
0.00122376
-4.64868e-05
0.00130287
0.00138351
-5.09003e-05
8.44878e-05
0.000123592
-8.77575e-05
8.09441e-05
0.000147114
7.71346e-05
0.000171503
7.30686e-05
0.000196866
6.87559e-05
0.000223363
6.42085e-05
0.000251085
5.94381e-05
0.000280257
5.44582e-05
0.000311034
4.92834e-05
0.000343601
4.39302e-05
0.000378147
3.84161e-05
0.000414864
3.27605e-05
0.000453942
2.69848e-05
0.000495565
2.11111e-05
0.000539958
1.51653e-05
0.00058713
9.17365e-06
0.000637359
3.16453e-06
0.000690706
-2.83169e-06
0.000747243
-8.78299e-06
0.00080701
-1.46557e-05
0.000869981
-2.04147e-05
0.000936097
-2.6024e-05
0.00100524
-3.14469e-05
0.00107723
-3.66464e-05
0.00115181
-4.15859e-05
0.0012287
-4.62299e-05
0.00130751
0.00138782
-5.05445e-05
8.21261e-05
0.000126754
-8.52877e-05
7.86909e-05
0.000150549
7.49901e-05
0.000175203
7.10326e-05
0.000200823
6.68278e-05
0.000227568
6.23876e-05
0.000255526
5.77235e-05
0.000284921
5.28489e-05
0.000315909
4.77785e-05
0.000348671
4.25287e-05
0.000383397
3.71174e-05
0.000420275
3.15639e-05
0.000459495
2.58898e-05
0.000501239
2.01177e-05
0.00054573
1.42734e-05
0.000592974
8.38346e-06
0.000643249
2.47643e-06
0.000696613
-3.41719e-06
0.000753136
-9.26532e-06
0.000812858
-1.50343e-05
0.00087575
-2.06891e-05
0.000941752
-2.61939e-05
0.00101074
-3.15122e-05
0.00108255
-3.66073e-05
0.00115691
-4.14431e-05
0.00123354
-4.59844e-05
0.00131206
0.00139204
-5.01979e-05
7.96218e-05
0.000129801
-8.26687e-05
7.63019e-05
0.000153869
7.27167e-05
0.000178789
6.88747e-05
0.000204666
6.47848e-05
0.000231658
6.04586e-05
0.000259852
5.59075e-05
0.000289472
5.11448e-05
0.000320671
4.61852e-05
0.000353631
4.10452e-05
0.000388537
3.57426e-05
0.000425578
3.02972e-05
0.000464941
2.47306e-05
0.000506806
1.90655e-05
0.000551395
1.33281e-05
0.000598712
7.54497e-06
0.000649032
1.74494e-06
0.000702413
-4.04143e-06
0.000758923
-9.78202e-06
0.000818599
-1.54431e-05
0.000881411
-2.09899e-05
0.000947298
-2.63866e-05
0.00101614
-3.15971e-05
0.00108776
-3.65849e-05
0.0011619
-4.13142e-05
0.00123827
-4.57504e-05
0.00131649
0.00139615
-4.98606e-05
7.69716e-05
0.000132726
-7.98972e-05
7.37741e-05
0.000157067
7.03117e-05
0.000182251
6.65921e-05
0.000208385
6.26242e-05
0.000235626
5.84189e-05
0.000264057
5.39875e-05
0.000293903
4.93433e-05
0.000325316
4.4501e-05
0.000358473
3.9477e-05
0.000393561
3.42894e-05
0.000430765
2.89581e-05
0.000470272
2.35048e-05
0.000512259
1.79524e-05
0.000556948
1.23274e-05
0.000604337
6.6565e-06
0.000654703
9.68573e-07
0.000708101
-4.70569e-06
0.000764597
-1.03341e-05
0.000824227
-1.58831e-05
0.00088696
-2.13178e-05
0.000952733
-2.66027e-05
0.00102142
-3.17019e-05
0.00109286