/*--------------------------------*- C++ -*----------------------------------*\
  =========                 |
  \\      /  F ield         | OpenFOAM: The Open Source CFD Toolbox
   \\    /   O peration     | Website:  https://openfoam.org
    \\  /    A nd           | Version:  10
     \\/     M anipulation  |
\*---------------------------------------------------------------------------*/
FoamFile
{
    format      ascii;
    class       volVectorField;
    location    "1244";
    object      U;
}
// * * * * * * * * * * * * * * * * * * * * * * * * * * * * * * * * * * * * * //

dimensions      [0 1 -1 0 0 0 0];

internalField   nonuniform List<vector> 
15350
(
(-0.00298826 0.0104447 0)
(-0.00174753 0.0100132 0)
(-0.000500603 0.00965413 0)
(0.000841762 0.00927559 0)
(0.00230939 0.00887233 0)
(0.00391758 0.00844619 0)
(0.00568219 0.00799576 0)
(0.00762042 0.00752038 0)
(0.00975093 0.00701951 0)
(0.0120937 0.00649272 0)
(0.0146693 0.00594003 0)
(0.0174998 0.00536098 0)
(0.0206073 0.0047557 0)
(0.0240147 0.00412428 0)
(0.0277443 0.00346719 0)
(0.0318182 0.00278524 0)
(0.0362573 0.00207944 0)
(0.0410807 0.00135151 0)
(0.0463049 0.000603687 0)
(0.0519433 -0.000161353 0)
(0.0580045 -0.000940062 0)
(0.0644921 -0.00172824 0)
(0.0714033 -0.00252099 0)
(0.0787283 -0.00331246 0)
(0.0864491 -0.00409611 0)
(0.0945388 -0.00486268 0)
(0.102961 -0.00559896 0)
(-0.00275717 0.0103244 0)
(-0.00159763 0.00997315 0)
(-0.000344201 0.00962306 0)
(0.00101796 0.00924671 0)
(0.00250641 0.00884248 0)
(0.00413558 0.00841288 0)
(0.00592127 0.00795814 0)
(0.00788085 0.00747815 0)
(0.0100331 0.00697271 0)
(0.0123981 0.00644171 0)
(0.0149967 0.00588507 0)
(0.0178509 0.00530268 0)
(0.020983 0.00469464 0)
(0.024416 0.00406117 0)
(0.0281724 0.00340281 0)
(0.0322739 0.00272042 0)
(0.0367414 0.00201517 0)
(0.0415936 0.00128878 0)
(0.0468469 0.000543454 0)
(0.0525138 -0.000217995 0)
(0.0586025 -0.000991987 0)
(0.0651159 -0.00177428 0)
(0.0720504 -0.00255987 0)
(0.079395 -0.00334281 0)
(0.0871299 -0.00411616 0)
(0.0952254 -0.00487069 0)
(0.103638 -0.00559417 0)
(-0.00242348 0.0103061 0)
(-0.00124018 0.00996173 0)
(4.05619e-05 0.00960459 0)
(0.00143002 0.00922303 0)
(0.00294397 0.00881494 0)
(0.00459775 0.00838129 0)
(0.00640761 0.00792234 0)
(0.00839117 0.00743811 0)
(0.0105673 0.00692854 0)
(0.0129559 0.00639365 0)
(0.0155779 0.00583342 0)
(0.018455 0.00524791 0)
(0.0216096 0.00463731 0)
(0.0250644 0.00400195 0)
(0.0288416 0.00334249 0)
(0.0329626 0.00265988 0)
(0.0374479 0.00195543 0)
(0.0423161 0.00123094 0)
(0.0475828 0.000488702 0)
(0.0532604 -0.000268364 0)
(0.0593564 -0.00103666 0)
(0.0658732 -0.00181193 0)
(0.0728064 -0.00258909 0)
(0.0801443 -0.00336226 0)
(0.0878658 -0.00412459 0)
(0.0959399 -0.00486803 0)
(0.104322 -0.00558339 0)
(-0.002097 0.0102999 0)
(-0.000892525 0.00995501 0)
(0.000410949 0.00959097 0)
(0.00182549 0.0092034 0)
(0.00336498 0.00879051 0)
(0.00504434 0.00835244 0)
(0.0068798 0.00788928 0)
(0.00888902 0.00740101 0)
(0.0110908 0.00688766 0)
(0.0135052 0.00634927 0)
(0.016153 0.00578591 0)
(0.0190558 0.00519772 0)
(0.0222357 0.00458497 0)
(0.0257153 0.00394807 0)
(0.0295164 0.00328777 0)
(0.0336601 0.0026051 0)
(0.0381664 0.00190146 0)
(0.0430532 0.00117871 0)
(0.0483357 0.000439234 0)
(0.0540254 -0.000313995 0)
(0.0601292 -0.00107735 0)
(0.0666486 -0.0018465 0)
(0.0735785 -0.00261639 0)
(0.0809061 -0.0033811 0)
(0.0886097 -0.00413393 0)
(0.0966575 -0.00486732 0)
(0.105006 -0.00557342 0)
(-0.00177197 0.0102957 0)
(-0.000544422 0.0099482 0)
(0.000782002 0.00957859 0)
(0.00222047 0.00918537 0)
(0.00378423 0.00876742 0)
(0.005488 0.00832468 0)
(0.00734787 0.00785718 0)
(0.00938151 0.00736489 0)
(0.0116077 0.00684784 0)
(0.0140463 0.00630612 0)
(0.0167183 0.00573985 0)
(0.0196451 0.00514925 0)
(0.0228486 0.00453464 0)
(0.0263513 0.00389654 0)
(0.0301746 0.00323574 0)
(0.0343393 0.00255336 0)
(0.038865 0.00185085 0)
(0.0437692 0.00113013 0)
(0.0490664 0.000393636 0)
(0.0547676 -0.000355622 0)
(0.0608789 -0.00111398 0)
(0.0674012 -0.0018771 0)
(0.0743287 -0.0026399 0)
(0.0816476 -0.00339654 0)
(0.0893355 -0.00414045 0)
(0.0973603 -0.00486442 0)
(0.105679 -0.00556123 0)
(-0.00144373 0.0102926 0)
(-0.000191709 0.00994126 0)
(0.00115848 0.00956676 0)
(0.00262085 0.00916836 0)
(0.00420867 0.00874544 0)
(0.00593654 0.00829804 0)
(0.00782055 0.00782619 0)
(0.00987828 0.0073299 0)
(0.0121285 0.00680922 0)
(0.014591 0.00626427 0)
(0.0172866 0.00569524 0)
(0.0202368 0.00510238 0)
(0.0234632 0.0044861 0)
(0.0269881 0.00384698 0)
(0.0308326 0.00318589 0)
(0.0350172 0.002504 0)
(0.0395612 0.00180283 0)
(0.0444815 0.00108435 0)
(0.0497921 0.00035104 0)
(0.0555035 -0.000394048 0)
(0.0616211 -0.00114723 0)
(0.0681451 -0.00190416 0)
(0.075069 -0.0026598 0)
(0.0823784 -0.00340839 0)
(0.0900504 -0.00414358 0)
(0.0980524 -0.00485851 0)
(0.106342 -0.00554643 0)
(-0.00111111 0.01029 0)
(0.000165745 0.00993437 0)
(0.00154008 0.0095552 0)
(0.0030264 0.00915197 0)
(0.00463811 0.00872431 0)
(0.00638987 0.00827239 0)
(0.00829773 0.00779632 0)
(0.0103793 0.00729613 0)
(0.0126531 0.00677195 0)
(0.0151392 0.00622392 0)
(0.0178581 0.00565227 0)
(0.0208311 0.00505733 0)
(0.02408 0.00443957 0)
(0.0276265 0.00379962 0)
(0.0314917 0.00313841 0)
(0.0356956 0.00245719 0)
(0.0402571 0.00175753 0)
(0.0451927 0.00104144 0)
(0.0505159 0.000311449 0)
(0.0562365 -0.000429367 0)
(0.0623594 -0.00117731 0)
(0.0688841 -0.00192805 0)
(0.0758034 -0.00267658 0)
(0.0831024 -0.00341729 0)
(0.0907577 -0.00414402 0)
(0.0987365 -0.00485022 0)
(0.106997 -0.0055295 0)
(-0.000773778 0.0102875 0)
(0.00052782 0.00992738 0)
(0.00192641 0.0095437 0)
(0.00343667 0.0091359 0)
(0.00507216 0.00870376 0)
(0.00684758 0.00824753 0)
(0.00877901 0.0077674 0)
(0.010884 0.00726349 0)
(0.0131812 0.00673595 0)
(0.0156903 0.00618499 0)
(0.018432 0.00561089 0)
(0.0214274 0.00501405 0)
(0.024698 0.00439498 0)
(0.0282655 0.00375438 0)
(0.0321506 0.00309324 0)
(0.0363731 0.00241286 0)
(0.0409513 0.00171486 0)
(0.0459013 0.0010013 0)
(0.0512363 0.000274739 0)
(0.0569652 -0.000461726 0)
(0.0630926 -0.0012044 0)
(0.0696171 -0.00194896 0)
(0.0765311 -0.0026905 0)
(0.0838191 -0.0034235 0)
(0.0914572 -0.00414201 0)
(0.0994127 -0.00483975 0)
(0.107644 -0.00551053 0)
(-0.00043194 0.0102847 0)
(0.000894262 0.00992014 0)
(0.00231709 0.0095321 0)
(0.00385125 0.00911997 0)
(0.00551039 0.00868357 0)
(0.00730928 0.00822326 0)
(0.00926399 0.00773928 0)
(0.0113921 0.00723183 0)
(0.0137122 0.00670111 0)
(0.0162439 0.00614739 0)
(0.0190079 0.00557103 0)
(0.0220251 0.00497245 0)
(0.0253169 0.00435224 0)
(0.0289047 0.00371116 0)
(0.032809 0.00305024 0)
(0.0370491 0.00237086 0)
(0.0416432 0.00167466 0)
(0.0466069 0.000963752 0)
(0.0519526 0.000240716 0)
(0.057689 -0.000491334 0)
(0.0638199 -0.00122871 0)
(0.0703435 -0.00196713 0)
(0.0772514 -0.00270176 0)
(0.0845278 -0.00342721 0)
(0.0921484 -0.00413769 0)
(0.100081 -0.00482714 0)
(0.108282 -0.00548958 0)
(-8.5704e-05 0.0102813 0)
(0.00126495 0.00991245 0)
(0.00271195 0.00952022 0)
(0.00426994 0.00910396 0)
(0.0059526 0.00866356 0)
(0.00777476 0.00819939 0)
(0.0097525 0.00771179 0)
(0.0119034 0.00720099 0)
(0.014246 0.0066673 0)
(0.0167999 0.00611102 0)
(0.0195857 0.00553256 0)
(0.0226241 0.00493242 0)
(0.0259365 0.00431124 0)
(0.0295439 0.00366984 0)
(0.0334666 0.00300931 0)
(0.0377237 0.00233106 0)
(0.0423329 0.00163678 0)
(0.0473093 0.000928628 0)
(0.052665 0.000209198 0)
(0.058408 -0.000518389 0)
(0.0645416 -0.00125046 0)
(0.0710635 -0.00198278 0)
(0.0779647 -0.00271058 0)
(0.085229 -0.0034286 0)
(0.0928318 -0.00413122 0)
(0.10074 -0.00481254 0)
(0.108913 -0.00546677 0)
(0.000264712 0.010277 0)
(0.0016397 0.00990407 0)
(0.0031108 0.00950785 0)
(0.00469252 0.0090877 0)
(0.00639857 0.00864351 0)
(0.0082438 0.00817572 0)
(0.0102443 0.00768473 0)
(0.0124177 0.00717082 0)
(0.0147824 0.00663435 0)
(0.0173581 0.00607571 0)
(0.0201652 0.00549535 0)
(0.0232243 0.00489383 0)
(0.0265566 0.00427186 0)
(0.030183 0.00363029 0)
(0.0341235 0.00297029 0)
(0.0383968 0.0022933 0)
(0.0430203 0.00160107 0)
(0.0480086 0.000895767 0)
(0.0533734 0.000180011 0)
(0.0591222 -0.000543075 0)
(0.0652578 -0.00126983 0)
(0.0717772 -0.00199609 0)
(0.0786711 -0.00271714 0)
(0.0859227 -0.00342785 0)
(0.0935074 -0.00412275 0)
(0.101392 -0.00479609 0)
(0.109535 -0.00544222 0)
(0.000619053 0.0102714 0)
(0.0020183 0.00989474 0)
(0.00351341 0.00949477 0)
(0.00511875 0.00907094 0)
(0.00684805 0.00862321 0)
(0.00871617 0.00815205 0)
(0.0107392 0.0076579 0)
(0.0129347 0.00714111 0)
(0.0153213 0.00660209 0)
(0.0179183 0.00604129 0)
(0.0207462 0.00545923 0)
(0.0238255 0.00485652 0)
(0.0271771 0.00423392 0)
(0.0308219 0.00359236 0)
(0.0347794 0.00293303 0)
(0.0390682 0.00225744 0)
(0.0437052 0.00156736 0)
(0.0487047 0.000864996 0)
(0.0540778 0.000152977 0)
(0.0598316 -0.000565574 0)
(0.0659683 -0.00128703 0)
(0.0724846 -0.00200725 0)
(0.0793706 -0.00272163 0)
(0.0866091 -0.00342514 0)
(0.0941753 -0.00411242 0)
(0.102036 -0.0047779 0)
(0.11015 -0.00541605 0)
(0.000977067 0.0102643 0)
(0.00240051 0.00988418 0)
(0.00391954 0.0094807 0)
(0.00554839 0.00905346 0)
(0.0073008 0.00860244 0)
(0.00919162 0.00812816 0)
(0.011237 0.00763109 0)
(0.0134544 0.00711166 0)
(0.0158623 0.00657032 0)
(0.0184803 0.00600758 0)
(0.0213285 0.00542402 0)
(0.0244275 0.00482031 0)
(0.0277979 0.00419727 0)
(0.0314603 0.00355587 0)
(0.0354342 0.00289737 0)
(0.0397378 0.0022233 0)
(0.0443875 0.00153549 0)
(0.0493974 0.000836141 0)
(0.0547781 0.000127918 0)
(0.0605362 -0.00058607 0)
(0.0666734 -0.00130222 0)
(0.0731858 -0.00201645 0)
(0.0800633 -0.00272422 0)
(0.0872883 -0.00342061 0)
(0.0948357 -0.00410039 0)
(0.102672 -0.00475811 0)
(0.110756 -0.00538837 0)
(0.00133846 0.0102554 0)
(0.00278605 0.00987207 0)
(0.00432893 0.00946536 0)
(0.0059812 0.00903497 0)
(0.00775657 0.00858093 0)
(0.00966992 0.00810379 0)
(0.0117373 0.00760407 0)
(0.0139763 0.00708225 0)
(0.0164054 0.00653883 0)
(0.0190439 0.00597438 0)
(0.021912 0.00538953 0)
(0.02503 0.00478502 0)
(0.0284187 0.00416172 0)
(0.0320982 0.00352065 0)
(0.0360878 0.00286312 0)
(0.0404054 0.00219071 0)
(0.0450673 0.00150526 0)
(0.0500868 0.000809021 0)
(0.0554743 0.000104652 0)
(0.0612359 -0.000604743 0)
(0.0673728 -0.00131559 0)
(0.0738809 -0.00202385 0)
(0.0807493 -0.00272507 0)
(0.0879604 -0.00341442 0)
(0.0954886 -0.00408679 0)
(0.103301 -0.00473684 0)
(0.111355 -0.0053593 0)
(0.00170294 0.0102442 0)
(0.00317464 0.0098581 0)
(0.00474132 0.00944845 0)
(0.0064169 0.00901521 0)
(0.0082151 0.00855843 0)
(0.0101508 0.0080787 0)
(0.01224 0.0075766 0)
(0.0145003 0.00705263 0)
(0.0169502 0.00650738 0)
(0.0196088 0.00594146 0)
(0.0224963 0.00535555 0)
(0.0256331 0.00475044 0)
(0.0290393 0.00412707 0)
(0.0327354 0.00348651 0)
(0.0367401 0.0028301 0)
(0.0410711 0.00215947 0)
(0.0457442 0.0014765 0)
(0.0507727 0.000783454 0)
(0.0561663 8.2998e-05 0)
(0.0619307 -0.000621771 0)
(0.0680668 -0.00132731 0)
(0.0745698 -0.00202963 0)
(0.0814287 -0.00272435 0)
(0.0886254 -0.00340672 0)
(0.0961342 -0.00407175 0)
(0.103922 -0.00471422 0)
(0.111947 -0.00532897 0)
(0.00207018 0.0102305 0)
(0.00356598 0.00984192 0)
(0.00515639 0.00942966 0)
(0.0068552 0.00899386 0)
(0.00867611 0.00853463 0)
(0.010634 0.00805261 0)
(0.0127448 0.0075484 0)
(0.0150262 0.00702257 0)
(0.0174965 0.00647575 0)
(0.0201749 0.00590859 0)
(0.0230814 0.00532185 0)
(0.0262363 0.00471637 0)
(0.0296597 0.00409312 0)
(0.0333716 0.00345323 0)
(0.0373908 0.00279811 0)
(0.0417346 0.0021294 0)
(0.0464184 0.00144902 0)
(0.0514551 0.000759253 0)
(0.0568541 6.2773e-05 0)
(0.0626206 -0.000637335 0)
(0.0687552 -0.00133755 0)
(0.0752526 -0.00203395 0)
(0.0821015 -0.0027222 0)
(0.0892834 -0.00339765 0)
(0.0967725 -0.00405541 0)
(0.104535 -0.00469037 0)
(0.112531 -0.00529749 0)
(0.00243972 0.0102139 0)
(0.00395956 0.00982321 0)
(0.00557365 0.00940865 0)
(0.00729559 0.00897062 0)
(0.00913908 0.00850926 0)
(0.0111189 0.00802525 0)
(0.0132512 0.00751923 0)
(0.0155534 0.00699182 0)
(0.0180437 0.00644368 0)
(0.0207416 0.00587555 0)
(0.0236667 0.00528822 0)
(0.0268393 0.00468258 0)
(0.0302793 0.00405966 0)
(0.0340066 0.00342064 0)
(0.0380397 0.00276695 0)
(0.0423955 0.0021003 0)
(0.0470893 0.00142263 0)
(0.0521336 0.000736238 0)
(0.0575373 4.38003e-05 0)
(0.0633054 -0.000651606 0)
(0.0694378 -0.00134649 0)
(0.0759291 -0.00203697 0)
(0.0827674 -0.00271879 0)
(0.0899341 -0.00338737 0)
(0.0974033 -0.00403792 0)
(0.105141 -0.00466544 0)
(0.113107 -0.00526498 0)
(0.00281132 0.0101941 0)
(0.00435523 0.00980159 0)
(0.00599297 0.0093851 0)
(0.00773797 0.00894516 0)
(0.00960392 0.008482 0)
(0.0116056 0.0079963 0)
(0.0137591 0.00748877 0)
(0.0160818 0.00696007 0)
(0.018592 0.00641091 0)
(0.0213089 0.00584207 0)
(0.0242523 0.00525439 0)
(0.0274421 0.00464883 0)
(0.0308982 0.00402645 0)
(0.0346403 0.00338848 0)
(0.0386867 0.00273641 0)
(0.043054 0.00207197 0)
(0.0477572 0.00139713 0)
(0.0528084 0.000714206 0)
(0.0582162 2.58836e-05 0)
(0.0639851 -0.000664773 0)
(0.0701149 -0.0013543 0)
(0.0765995 -0.00203886 0)
(0.0834268 -0.00271426 0)
(0.090578 -0.00337601 0)
(0.0980269 -0.0040194 0)
(0.10574 -0.00463952 0)
(0.113676 -0.00523156 0)
(0.00318482 0.0101707 0)
(0.00475283 0.00977671 0)
(0.00641419 0.00935862 0)
(0.00818221 0.00891712 0)
(0.0100705 0.00845249 0)
(0.0120939 0.00796544 0)
(0.0142685 0.00745673 0)
(0.0166115 0.00692704 0)
(0.0191413 0.00637715 0)
(0.0218769 0.00580787 0)
(0.0248381 0.00522011 0)
(0.0280447 0.00461486 0)
(0.0315165 0.00399324 0)
(0.0352729 0.00335653 0)
(0.039332 0.00270625 0)
(0.0437102 0.00204418 0)
(0.0484222 0.0013723 0)
(0.0534797 0.000692951 0)
(0.058891 8.82753e-06 0)
(0.0646603 -0.000677021 0)
(0.0707867 -0.00136116 0)
(0.0772641 -0.00203979 0)
(0.08408 -0.00270878 0)
(0.0912153 -0.00336371 0)
(0.0986437 -0.00399996 0)
(0.106331 -0.00461274 0)
(0.114237 -0.0051973 0)
(0.00355974 0.0101432 0)
(0.00515182 0.00974817 0)
(0.00683679 0.00932886 0)
(0.00862775 0.00888617 0)
(0.0105383 0.00842042 0)
(0.0125833 0.00793237 0)
(0.0147787 0.00742279 0)
(0.0171418 0.00689244 0)
(0.0196909 0.00634212 0)
(0.022445 0.0057727 0)
(0.0254237 0.00518512 0)
(0.0286468 0.00458043 0)
(0.0321338 0.00395981 0)
(0.035904 0.00332456 0)
(0.0399753 0.00267626 0)
(0.0443638 0.00201671 0)
(0.0490839 0.00134794 0)
(0.0541472 0.000672286 0)
(0.0595614 -7.54957e-06 0)
(0.0653303 -0.000688524 0)
(0.071453 -0.00136723 0)
(0.0779227 -0.0020399 0)
(0.0847268 -0.00270248 0)
(0.0918458 -0.00335061 0)
(0.0992534 -0.00397976 0)
(0.106916 -0.00458522 0)
(0.114792 -0.00516236 0)
(0.00393564 0.0101113 0)
(0.00555183 0.00971559 0)
(0.00726038 0.00929545 0)
(0.00907425 0.00885194 0)
(0.011007 0.00838544 0)
(0.0130735 0.00789674 0)
(0.0152896 0.00738665 0)
(0.0176726 0.00685597 0)
(0.0202408 0.00630553 0)
(0.023013 0.00573626 0)
(0.0260088 0.00514915 0)
(0.0292479 0.00454529 0)
(0.0327497 0.0039259 0)
(0.0365332 0.00329235 0)
(0.0406162 0.00264622 0)
(0.0450145 0.00198937 0)
(0.0497423 0.00132384 0)
(0.0548107 0.000652009 0)
(0.0602272 -2.34391e-05 0)
(0.0659953 -0.000699465 0)
(0.0721136 -0.00137268 0)
(0.0785752 -0.00203938 0)
(0.085367 -0.00269553 0)
(0.0924695 -0.00333686 0)
(0.099856 -0.00395892 0)
(0.107493 -0.00455709 0)
(0.115339 -0.00512682 0)
(0.00431216 0.0100746 0)
(0.00595247 0.00967859 0)
(0.0076846 0.00925802 0)
(0.00952132 0.00881408 0)
(0.0114762 0.00834721 0)
(0.013564 0.00785823 0)
(0.0158007 0.00734799 0)
(0.0182034 0.00681731 0)
(0.0207904 0.00626709 0)
(0.0235805 0.00569828 0)
(0.0265931 0.00511193 0)
(0.0298479 0.00450918 0)
(0.033364 0.00389128 0)
(0.0371605 0.00325963 0)
(0.0412546 0.00261589 0)
(0.0456622 0.00196192 0)
(0.0503971 0.0012998 0)
(0.0554701 0.000631919 0)
(0.0608884 -3.90338e-05 0)
(0.0666552 -0.000710026 0)
(0.0727686 -0.0013777 0)
(0.0792216 -0.00203837 0)
(0.0860008 -0.00268807 0)
(0.0930863 -0.0033226 0)
(0.100452 -0.00393757 0)
(0.108063 -0.00452846 0)
(0.115878 -0.00509081 0)
(0.00468892 0.0100326 0)
(0.00635335 0.00963675 0)
(0.00810904 0.00921617 0)
(0.00996859 0.0087722 0)
(0.0119455 0.00830536 0)
(0.0140546 0.00781648 0)
(0.0163117 0.00730646 0)
(0.0187339 0.00677614 0)
(0.0213395 0.00622648 0)
(0.0241473 0.00565847 0)
(0.0271764 0.00507319 0)
(0.0304465 0.00447181 0)
(0.0339766 0.00385567 0)
(0.0377855 0.00322618 0)
(0.0418904 0.00258504 0)
(0.0463068 0.00193415 0)
(0.0510482 0.0012756 0)
(0.0561253 0.000611811 0)
(0.0615448 -5.45273e-05 0)
(0.0673098 -0.000720391 0)
(0.0734179 -0.00138244 0)
(0.0798619 -0.00203703 0)
(0.086628 -0.00268026 0)
(0.0936964 -0.00330796 0)
(0.10104 -0.00391584 0)
(0.108625 -0.00449945 0)
(0.116411 -0.00505443 0)
(0.00506545 0.00998505 0)
(0.00675405 0.00958968 0)
(0.00853331 0.00916951 0)
(0.0104157 0.00872593 0)
(0.0124146 0.00825952 0)
(0.0145448 0.00777115 0)
(0.0168222 0.00726172 0)
(0.0192638 0.00673215 0)
(0.0218878 0.0061834 0)
(0.0247129 0.00561652 0)
(0.0277583 0.00503262 0)
(0.0310434 0.00443293 0)
(0.0345871 0.00381881 0)
(0.038408 0.00319173 0)
(0.0425233 0.00255342 0)
(0.046948 0.00190581 0)
(0.0516955 0.00125102 0)
(0.0567761 0.000591479 0)
(0.0621965 -7.01143e-05 0)
(0.067959 -0.000730743 0)
(0.0740615 -0.00138709 0)
(0.0804959 -0.00203554 0)
(0.0872487 -0.00267224 0)
(0.0942995 -0.00329308 0)
(0.101621 -0.00389386 0)
(0.109181 -0.00447018 0)
(0.116936 -0.00501779 0)
(0.00544135 0.00993142 0)
(0.00715415 0.00953697 0)
(0.00895699 0.00911765 0)
(0.0108621 0.00867489 0)
(0.012883 0.00820933 0)
(0.0150343 0.00772187 0)
(0.0173319 0.00721345 0)
(0.0197928 0.006685 0)
(0.022435 0.00613753 0)
(0.0252772 0.00557212 0)
(0.0283386 0.00498994 0)
(0.0316383 0.00439225 0)
(0.0351953 0.00378044 0)
(0.0390279 0.00315604 0)
(0.043153 0.0025208 0)
(0.0475856 0.00187669 0)
(0.0523388 0.00122585 0)
(0.0574225 0.000570716 0)
(0.0628431 -8.59898e-05 0)
(0.0686029 -0.000741266 0)
(0.0746991 -0.00139181 0)
(0.0811237 -0.00203405 0)
(0.0878628 -0.00266416 0)
(0.0948959 -0.00327811 0)
(0.102196 -0.00387174 0)
(0.109729 -0.00444076 0)
(0.117454 -0.00498098 0)
(0.00581618 0.00987132 0)
(0.00755321 0.00947819 0)
(0.00937964 0.00906018 0)
(0.0113075 0.00861868 0)
(0.0133504 0.00815441 0)
(0.0155227 0.00766829 0)
(0.0178403 0.00716128 0)
(0.0203203 0.00663435 0)
(0.0229806 0.00608854 0)
(0.0258398 0.00552498 0)
(0.0289169 0.00494486 0)
(0.032231 0.00434949 0)
(0.0358009 0.0037403 0)
(0.0396448 0.00311885 0)
(0.0437794 0.00248693 0)
(0.0482195 0.00184654 0)
(0.0529779 0.00119985 0)
(0.0580642 0.000549317 0)
(0.0634847 -0.000102349 0)
(0.0692412 -0.000752141 0)
(0.0753308 -0.00139678 0)
(0.0817452 -0.00203271 0)
(0.0884702 -0.00265617 0)
(0.0954853 -0.00326317 0)
(0.102763 -0.00384962 0)
(0.11027 -0.00441131 0)
(0.117965 -0.00494413 0)
(0.00618952 0.00980433 0)
(0.0079508 0.00941293 0)
(0.00980082 0.0089967 0)
(0.0117515 0.00855692 0)
(0.0138162 0.00809439 0)
(0.0160095 0.00761004 0)
(0.0183471 0.00710486 0)
(0.0208461 0.00657987 0)
(0.0235243 0.00603612 0)
(0.0264002 0.00547478 0)
(0.0294928 0.00489708 0)
(0.0328211 0.00430436 0)
(0.0364036 0.0036981 0)
(0.0402586 0.0030799 0)
(0.0444023 0.00245157 0)
(0.0488494 0.00181515 0)
(0.0536126 0.00117282 0)
(0.0587011 0.000527072 0)
(0.064121 -0.000119387 0)
(0.0698739 -0.000763553 0)
(0.0759565 -0.00140216 0)
(0.0823603 -0.00203169 0)
(0.089071 -0.00264841 0)
(0.0960677 -0.0032484 0)
(0.103323 -0.00382762 0)
(0.110804 -0.00438194 0)
(0.118468 -0.00490732 0)
(0.00656072 0.00973002 0)
(0.00834626 0.0093408 0)
(0.0102199 0.00892683 0)
(0.0121933 0.00848924 0)
(0.0142799 0.0080289 0)
(0.0164941 0.00754677 0)
(0.0188516 0.00704388 0)
(0.0213695 0.00652124 0)
(0.0240654 0.00597996 0)
(0.0269579 0.00542123 0)
(0.0300658 0.00484632 0)
(0.033408 0.00425661 0)
(0.0370029 0.00365361 0)
(0.0408685 0.00303895 0)
(0.045021 0.00241448 0)
(0.0494748 0.00178228 0)
(0.0542424 0.00114455 0)
(0.0593328 0.000503785 0)
(0.0647517 -0.000137289 0)
(0.0705005 -0.000775676 0)
(0.0765757 -0.00140812 0)
(0.0829686 -0.00203114 0)
(0.0896646 -0.00264104 0)
(0.0966428 -0.00323394 0)
(0.103876 -0.00380587 0)
(0.11133 -0.00435276 0)
(0.118964 -0.00487066 0)
(0.00692942 0.009648 0)
(0.0087393 0.00926136 0)
(0.0106366 0.00885015 0)
(0.0126327 0.00841522 0)
(0.0147411 0.00795755 0)
(0.0169762 0.00747811 0)
(0.0193536 0.00697795 0)
(0.0218903 0.0064581 0)
(0.0246039 0.00591971 0)
(0.0275128 0.005364 0)
(0.0306358 0.00479226 0)
(0.0339917 0.00420592 0)
(0.0375987 0.00360651 0)
(0.0414746 0.00299572 0)
(0.0456356 0.00237542 0)
(0.0500958 0.0017477 0)
(0.0548674 0.00111481 0)
(0.0599592 0.000479242 0)
(0.0653768 -0.000156257 0)
(0.0711212 -0.000788696 0)
(0.0771887 -0.00141484 0)
(0.0835704 -0.00203122 0)
(0.0902514 -0.00263418 0)
(0.0972109 -0.0032199 0)
(0.104421 -0.00378447 0)
(0.111849 -0.00432387 0)
(0.119453 -0.00483424 0)
(0.00729535 0.00955778 0)
(0.00912963 0.00917415 0)
(0.0110506 0.00876619 0)
(0.0130695 0.00833443 0)
(0.0151998 0.00787991 0)
(0.0174557 0.00740364 0)
(0.0198529 0.00690667 0)
(0.0224083 0.00639007 0)
(0.0251395 0.00585501 0)
(0.0280647 0.00530273 0)
(0.0312027 0.00473457 0)
(0.034572 0.00415198 0)
(0.0381909 0.00355653 0)
(0.042077 0.00294993 0)
(0.0462461 0.0023341 0)
(0.0507124 0.00171115 0)
(0.0554876 0.00108335 0)
(0.0605805 0.000453223 0)
(0.0659964 -0.000176491 0)
(0.071736 -0.000802797 0)
(0.0777955 -0.00142247 0)
(0.0841656 -0.00203207 0)
(0.0908315 -0.00262798 0)
(0.097772 -0.00320642 0)
(0.10496 -0.00376352 0)
(0.112361 -0.00429536 0)
(0.119934 -0.00479812 0)
(0.00765789 0.00945896 0)
(0.00951658 0.00907877 0)
(0.0114612 0.00867459 0)
(0.013503 0.0082465 0)
(0.015655 0.00779563 0)
(0.0179318 0.00732302 0)
(0.0203488 0.00682973 0)
(0.0229229 0.00631685 0)
(0.0256716 0.00578556 0)
(0.028613 0.00523715 0)
(0.0317658 0.00467298 0)
(0.0351484 0.00409453 0)
(0.038779 0.0035034 0)
(0.0426749 0.00290134 0)
(0.046852 0.0022903 0)
(0.0513239 0.00167242 0)
(0.0561025 0.00104999 0)
(0.0611963 0.000425537 0)
(0.0666101 -0.000198172 0)
(0.0723446 -0.00081815 0)
(0.0783957 -0.00143118 0)
(0.0847541 -0.00203385 0)
(0.0914045 -0.00262257 0)
(0.0983259 -0.00319361 0)
(0.105491 -0.00374315 0)
(0.112865 -0.00426734 0)
(0.120408 -0.00476242 0)
(0.00801649 0.00935113 0)
(0.00989963 0.0089748 0)
(0.011868 0.00857493 0)
(0.0139325 0.00815104 0)
(0.0161065 0.00770434 0)
(0.0184041 0.00723588 0)
(0.0208409 0.00674676 0)
(0.0234336 0.00623807 0)
(0.0261996 0.00571103 0)
(0.0291572 0.00516694 0)
(0.0323247 0.00460718 0)
(0.0357204 0.00403327 0)
(0.0393625 0.00344686 0)
(0.0432681 0.0028497 0)
(0.0474528 0.00224378 0)
(0.0519302 0.00163128 0)
(0.0567119 0.00101449 0)
(0.0618061 0.000395982 0)
(0.0672176 -0.000221488 0)
(0.0729467 -0.000834927 0)
(0.0789892 -0.00144113 0)
(0.0853355 -0.0020367 0)
(0.0919703 -0.00261809 0)
(0.0988723 -0.00318159 0)
(0.106014 -0.00372347 0)
(0.113361 -0.00423989 0)
(0.120875 -0.0047272 0)
(0.00837063 0.00923386 0)
(0.0102783 0.00886183 0)
(0.0122704 0.00846682 0)
(0.0143578 0.00804765 0)
(0.0165536 0.00760563 0)
(0.0188721 0.00714186 0)
(0.0213286 0.00665741 0)
(0.0239399 0.00615341 0)
(0.0267233 0.00563109 0)
(0.0296969 0.00509177 0)
(0.0328789 0.00453687 0)
(0.0362877 0.00396793 0)
(0.0399411 0.00338662 0)
(0.0438562 0.00279474 0)
(0.0480483 0.0021943 0)
(0.052531 0.00158749 0)
(0.0573155 0.000976657 0)
(0.0624099 0.00036436 0)
(0.0678187 -0.000246622 0)
(0.0735422 -0.000853298 0)
(0.0795757 -0.00145247 0)
(0.0859097 -0.00204077 0)
(0.0925287 -0.00261466 0)
(0.0994112 -0.00317049 0)
(0.10653 -0.00370456 0)
(0.11385 -0.00421312 0)
(0.121333 -0.00469255 0)
(0.00871978 0.00910677 0)
(0.010652 0.00873945 0)
(0.0126678 0.00834985 0)
(0.0147781 0.00793595 0)
(0.0169958 0.00749915 0)
(0.0193352 0.00704058 0)
(0.0218115 0.00656132 0)
(0.0244413 0.00606252 0)
(0.0272421 0.00554541 0)
(0.0302316 0.00501135 0)
(0.0334282 0.00446176 0)
(0.0368499 0.00389822 0)
(0.0405144 0.00332243 0)
(0.0444388 0.00273622 0)
(0.0486382 0.00214161 0)
(0.0531258 0.00154085 0)
(0.0579129 0.000936271 0)
(0.0630073 0.000330476 0)
(0.0684132 -0.000273755 0)
(0.0741307 -0.000873429 0)
(0.0801552 -0.00146536 0)
(0.0864766 -0.00204618 0)
(0.0930795 -0.0026124 0)
(0.0999425 -0.0031604 0)
(0.107038 -0.00368654 0)
(0.114332 -0.0041871 0)
(0.121784 -0.00465854 0)
(0.00906343 0.00896943 0)
(0.0110202 0.00860725 0)
(0.0130599 0.00822363 0)
(0.0151931 0.00781555 0)
(0.0174327 0.00738451 0)
(0.0197929 0.00693168 0)
(0.022289 0.00645815 0)
(0.0249374 0.00596507 0)
(0.0277555 0.00545368 0)
(0.0307609 0.00492535 0)
(0.0339719 0.00438155 0)
(0.0374064 0.00382386 0)
(0.0410821 0.00325402 0)
(0.0450156 0.00267387 0)
(0.049222 0.00208549 0)
(0.0537145 0.00149111 0)
(0.0585039 0.000893129 0)
(0.063598 0.000294139 0)
(0.0690008 -0.000303063 0)
(0.0747122 -0.00089548 0)
(0.0807273 -0.00147993 0)
(0.087036 -0.00205308 0)
(0.0936227 -0.00261144 0)
(0.100466 -0.00315144 0)
(0.107538 -0.00366948 0)
(0.114805 -0.00416191 0)
(0.122227 -0.00462523 0)
(0.00940105 0.00882143 0)
(0.0113824 0.00846481 0)
(0.0134459 0.00808775 0)
(0.0156021 0.00768605 0)
(0.0178636 0.00726135 0)
(0.0202447 0.00681482 0)
(0.0227606 0.00634756 0)
(0.0254276 0.00586072 0)
(0.028263 0.00535557 0)
(0.0312843 0.00483348 0)
(0.0345097 0.00429595 0)
(0.037957 0.00374458 0)
(0.0416436 0.00318112 0)
(0.0455861 0.00260746 0)
(0.0497995 0.00202569 0)
(0.0542966 0.00143808 0)
(0.0590882 0.000847028 0)
(0.0641818 0.000255162 0)
(0.0695813 -0.000334717 0)
(0.0752863 -0.000919608 0)
(0.0812918 -0.00149634 0)
(0.0875876 -0.00206158 0)
(0.094158 -0.00261188 0)
(0.100981 -0.0031437 0)
(0.10803 -0.00365348 0)
(0.11527 -0.00413762 0)
(0.122662 -0.00459268 0)
(0.00973205 0.00866241 0)
(0.0117381 0.00831175 0)
(0.0138255 0.00794183 0)
(0.0160045 0.0075471 0)
(0.0182881 0.00712929 0)
(0.0206901 0.00668962 0)
(0.0232258 0.00622919 0)
(0.0259115 0.00574914 0)
(0.0287641 0.00525076 0)
(0.0318014 0.00473544 0)
(0.0350411 0.00420467 0)
(0.0385011 0.00366009 0)
(0.0421986 0.00310348 0)
(0.04615 0.00253674 0)
(0.0503702 0.00196199 0)
(0.0548719 0.00138153 0)
(0.0596655 0.000797773 0)
(0.0647584 0.000213364 0)
(0.0701543 -0.000368882 0)
(0.0758528 -0.000945962 0)
(0.0818486 -0.00151471 0)
(0.0881313 -0.00207181 0)
(0.0946853 -0.00261383 0)
(0.101489 -0.00313727 0)
(0.108514 -0.00363861 0)
(0.115727 -0.00411429 0)
(0.123089 -0.00456095 0)
(0.0100559 0.00849196 0)
(0.0120866 0.00814767 0)
(0.0141979 0.0077855 0)
(0.0163999 0.00739832 0)
(0.0187055 0.00698798 0)
(0.0211285 0.00655576 0)
(0.0236841 0.00610272 0)
(0.0263883 0.00563003 0)
(0.0292583 0.00513896 0)
(0.0323115 0.00463092 0)
(0.0355656 0.00410743 0)
(0.0390383 0.00357014 0)
(0.0427466 0.00302084 0)
(0.0467069 0.00246147 0)
(0.0509338 0.00189417 0)
(0.0554398 0.00132125 0)
(0.0602353 0.000745171 0)
(0.0653274 0.000168571 0)
(0.0707196 -0.000405716 0)
(0.0764114 -0.000974686 0)
(0.0823973 -0.00153517 0)
(0.0886669 -0.00208387 0)
(0.0952042 -0.00261739 0)
(0.101988 -0.00313223 0)
(0.108989 -0.00362494 0)
(0.116176 -0.00409199 0)
(0.123508 -0.00453007 0)
(0.0103719 0.00830978 0)
(0.0124272 0.00797226 0)
(0.0145624 0.00761845 0)
(0.0167875 0.00723942 0)
(0.0191151 0.00683715 0)
(0.0215592 0.00641295 0)
(0.0241346 0.00596789 0)
(0.0268576 0.00550311 0)
(0.0297449 0.00501992 0)
(0.032814 0.0045197 0)
(0.0360825 0.00400401 0)
(0.0395678 0.0034745 0)
(0.0432869 0.002933 0)
(0.047256 0.00238146 0)
(0.0514896 0.00182204 0)
(0.0559998 0.00125709 0)
(0.060797 0.000689064 0)
(0.0658882 0.000120637 0)
(0.0712766 -0.000445355 0)
(0.0769616 -0.0010059 0)
(0.0829374 -0.00155784 0)
(0.0891937 -0.00209788 0)
(0.0957144 -0.00262264 0)
(0.102478 -0.00312867 0)
(0.109456 -0.00361253 0)
(0.116616 -0.00407077 0)
(0.123918 -0.0045001 0)
(0.0106796 0.00811549 0)
(0.0127596 0.00778511 0)
(0.0149187 0.00744027 0)
(0.0171668 0.00707 0)
(0.0195165 0.00667639 0)
(0.0219816 0.00626081 0)
(0.024577 0.00582432 0)
(0.0273187 0.00536805 0)
(0.0302235 0.00489329 0)
(0.0333086 0.00440146 0)
(0.0365914 0.0038941 0)
(0.0400894 0.0033729 0)
(0.0438193 0.00283969 0)
(0.0477972 0.00229645 0)
(0.0520373 0.00174537 0)
(0.0565518 0.00118881 0)
(0.0613506 0.000629253 0)
(0.0664407 6.93802e-05 0)
(0.0718253 -0.000487957 0)
(0.0775032 -0.00103974 0)
(0.083469 -0.00158282 0)
(0.0897119 -0.00211392 0)
(0.0962159 -0.00262966 0)
(0.102959 -0.00312664 0)
(0.109914 -0.00360144 0)
(0.117047 -0.00405065 0)
(0.12432 -0.00447105 0)
(0.0109786 0.00790861 0)
(0.0130833 0.00758574 0)
(0.0152663 0.00725052 0)
(0.0175375 0.00688962 0)
(0.0199093 0.0065053 0)
(0.0223956 0.00609896 0)
(0.025011 0.00567164 0)
(0.0277715 0.00522447 0)
(0.0306938 0.00475873 0)
(0.0337949 0.00427585 0)
(0.0370922 0.00377738 0)
(0.0406029 0.00326501 0)
(0.0443436 0.00274062 0)
(0.0483303 0.00220618 0)
(0.0525769 0.00166392 0)
(0.0570955 0.0011162 0)
(0.061896 0.000565536 0)
(0.0669849 1.46229e-05 0)
(0.0723654 -0.000533679 0)
(0.0780364 -0.00107635 0)
(0.0839919 -0.00161024 0)
(0.0902214 -0.00213208 0)
(0.0967086 -0.00263853 0)
(0.103432 -0.0031262 0)
(0.110363 -0.0035917 0)
(0.11747 -0.00403167 0)
(0.124712 -0.00444293 0)
(0.0112682 0.00768889 0)
(0.0133975 0.00737389 0)
(0.0156044 0.00704893 0)
(0.0178987 0.00669805 0)
(0.0202927 0.00632364 0)
(0.0228002 0.00592717 0)
(0.0254357 0.00550963 0)
(0.0282151 0.00507216 0)
(0.031155 0.00461603 0)
(0.0342722 0.00414267 0)
(0.037584 0.00365365 0)
(0.0411074 0.00315067 0)
(0.044859 0.00263561 0)
(0.0488544 0.00211048 0)
(0.0531076 0.00157751 0)
(0.0576303 0.0010391 0)
(0.0624323 0.000497777 0)
(0.0675201 -4.37572e-05 0)
(0.0728965 -0.00058263 0)
(0.0785603 -0.00111582 0)
(0.0845056 -0.00164018 0)
(0.0907216 -0.00215245 0)
(0.097192 -0.0026493 0)
(0.103895 -0.00312738 0)
(0.110803 -0.00358334 0)
(0.117883 -0.00401385 0)
(0.125096 -0.00441575 0)
(0.0115477 0.00745603 0)
(0.0137016 0.00714924 0)
(0.0159324 0.00683522 0)
(0.0182498 0.00649499 0)
(0.0206661 0.00613113 0)
(0.0231948 0.00574515 0)
(0.0258505 0.00533803 0)
(0.028649 0.00491086 0)
(0.0316065 0.00446494 0)
(0.0347399 0.00400168 0)
(0.0380662 0.00352267 0)
(0.0416025 0.00302963 0)
(0.045365 0.00252444 0)
(0.0493692 0.00200914 0)
(0.0536288 0.00148597 0)
(0.0581557 0.000957352 0)
(0.0629592 0.000425822 0)
(0.0680458 -0.000105896 0)
(0.0734181 -0.000634925 0)
(0.0790748 -0.00115824 0)
(0.0850098 -0.00167271 0)
(0.0912122 -0.00217507 0)
(0.0976658 -0.00266202 0)
(0.104349 -0.00313023 0)
(0.111234 -0.00357639 0)
(0.118287 -0.00399719 0)