/*--------------------------------*- C++ -*----------------------------------*\
  =========                 |
  \\      /  F ield         | OpenFOAM: The Open Source CFD Toolbox
   \\    /   O peration     | Website:  https://openfoam.org
    \\  /    A nd           | Version:  10
     \\/     M anipulation  |
\*---------------------------------------------------------------------------*/
FoamFile
{
    format      ascii;
    class       volScalarField;
    location    "1244";
    object      V;
}
// * * * * * * * * * * * * * * * * * * * * * * * * * * * * * * * * * * * * * //

dimensions      [0 3 0 0 0 0 0];

internalField   nonuniform List<scalar> 
15350
(
0.000121221
0.000121221
0.000121221
0.000121221
0.000121232
0.000121221
0.000121221
0.000121221
0.000121221
0.000121221
0.000121221
0.000121221
0.000121221
0.000121232
0.000121221
0.000121221
0.000121221
0.000121221
0.000121222
0.000121222
0.000121222
0.000121222
0.000121223
0.000121222
0.000121222
0.000121222
0.000121222
0.000121221
0.000121221
0.000121221
0.000121221
0.000121232
0.000121221
0.000121221
0.000121221
0.000121221
0.000121221
0.000121221
0.000121221
0.000121221
0.000121232
0.000121221
0.000121221
0.000121221
0.000121221
0.000121222
0.000121222
0.000121222
0.000121222
0.000121223
0.000121222
0.000121222
0.000121222
0.000121222
0.000121221
0.000121221
0.000121221
0.000121221
0.000121232
0.000121221
0.000121221
0.000121221
0.000121221
0.000121221
0.000121221
0.000121221
0.000121221
0.000121232
0.000121221
0.000121221
0.000121221
0.000121221
0.000121222
0.000121222
0.000121222
0.000121222
0.000121223
0.000121222
0.000121222
0.000121222
0.000121222
0.000121221
0.000121221
0.000121221
0.000121221
0.000121232
0.000121221
0.000121221
0.000121221
0.000121221
0.000121221
0.000121221
0.000121221
0.000121221
0.000121232
0.000121221
0.000121221
0.000121221
0.000121221
0.000121222
0.000121222
0.000121222
0.000121222
0.000121223
0.000121222
0.000121222
0.000121222
0.000121222
0.000121221
0.000121221
0.000121221
0.000121221
0.000121232
0.000121221
0.000121221
0.000121221
0.000121221
0.000121221
0.000121221
0.000121221
0.000121221
0.000121232
0.000121221
0.000121221
0.000121221
0.000121221
0.000121222
0.000121222
0.000121222
0.000121222
0.000121223
0.000121222
0.000121222
0.000121222
0.000121222
0.00012111
0.00012111
0.00012111
0.00012111
0.000121121
0.00012111
0.00012111
0.00012111
0.00012111
0.00012111
0.00012111
0.00012111
0.00012111
0.000121121
0.00012111
0.00012111
0.00012111
0.00012111
0.000121111
0.000121111
0.000121111
0.000121111
0.000121112
0.000121111
0.000121111
0.000121111
0.000121111
0.000121221
0.000121221
0.000121221
0.000121221
0.000121232
0.000121221
0.000121221
0.000121221
0.000121221
0.000121221
0.000121221
0.000121221
0.000121221
0.000121232
0.000121221
0.000121221
0.000121221
0.000121221
0.000121222
0.000121222
0.000121222
0.000121222
0.000121223
0.000121222
0.000121222
0.000121222
0.000121222
0.000121221
0.000121221
0.000121221
0.000121221
0.000121232
0.000121221
0.000121221
0.000121221
0.000121221
0.000121221
0.000121221
0.000121221
0.000121221
0.000121232
0.000121221
0.000121221
0.000121221
0.000121221
0.000121222
0.000121222
0.000121222
0.000121222
0.000121223
0.000121222
0.000121222
0.000121222
0.000121222
0.000121221
0.000121221
0.000121221
0.000121221
0.000121232
0.000121221
0.000121221
0.000121221
0.000121221
0.000121221
0.000121221
0.000121221
0.000121221
0.000121232
0.000121221
0.000121221
0.000121221
0.000121221
0.000121222
0.000121222
0.000121222
0.000121222
0.000121223
0.000121222
0.000121222
0.000121222
0.000121222
0.000121221
0.000121221
0.000121221
0.000121221
0.000121232
0.000121221
0.000121221
0.000121221
0.000121221
0.000121221
0.000121221
0.000121221
0.000121221
0.000121232
0.000121221
0.000121221
0.000121221
0.000121221
0.000121222
0.000121222
0.000121222
0.000121222
0.000121223
0.000121222
0.000121222
0.000121222
0.000121222
0.000121221
0.000121221
0.000121221
0.000121221
0.000121232
0.000121221
0.000121221
0.000121221
0.000121221
0.000121221
0.000121221
0.000121221
0.000121221
0.000121232
0.000121221
0.000121221
0.000121221
0.000121221
0.000121222
0.000121222
0.000121222
0.000121222
0.000121223
0.000121222
0.000121222
0.000121222
0.000121222
0.000121221
0.000121221
0.000121221
0.000121221
0.000121232
0.000121221
0.000121221
0.000121221
0.000121221
0.000121221
0.000121221
0.000121221
0.000121221
0.000121232
0.000121221
0.000121221
0.000121221
0.000121221
0.000121222
0.000121222
0.000121222
0.000121222
0.000121223
0.000121222
0.000121222
0.000121222
0.000121222
0.000121221
0.000121221
0.000121221
0.000121221
0.000121232
0.000121221
0.000121221
0.000121221
0.000121221
0.000121221
0.000121221
0.000121221
0.000121221
0.000121232
0.000121221
0.000121221
0.000121221
0.000121221
0.000121222
0.000121222
0.000121222
0.000121222
0.000121223
0.000121222
0.000121222
0.000121222
0.000121222
0.000121221
0.000121221
0.000121221
0.000121221
0.000121232
0.000121221
0.000121221
0.000121221
0.000121221
0.000121221
0.000121221
0.000121221
0.000121221
0.000121232
0.000121221
0.000121221
0.000121221
0.000121221
0.000121222
0.000121222
0.000121222
0.000121222
0.000121223
0.000121222
0.000121222
0.000121222
0.000121222
0.000121221
0.000121221
0.000121221
0.000121221
0.000121232
0.000121221
0.000121221
0.000121221
0.000121221
0.000121221
0.000121221
0.000121221
0.000121221
0.000121232
0.000121221
0.000121221
0.000121221
0.000121221
0.000121222
0.000121222
0.000121222
0.000121222
0.000121223
0.000121222
0.000121222
0.000121222
0.000121222
0.000121221
0.000121221
0.000121221
0.000121221
0.000121232
0.000121221
0.000121221
0.000121221
0.000121221
0.000121221
0.000121221
0.000121221
0.000121221
0.000121232
0.000121221
0.000121221
0.000121221
0.000121221
0.000121222
0.000121222
0.000121222
0.000121222
0.000121223
0.000121222
0.000121222
0.000121222
0.000121222
0.00012111
0.00012111
0.00012111
0.00012111
0.000121121
0.00012111
0.00012111
0.00012111
0.00012111
0.00012111
0.00012111
0.00012111
0.00012111
0.000121121
0.00012111
0.00012111
0.00012111
0.00012111
0.000121111
0.000121111
0.000121111
0.000121111
0.000121112
0.000121111
0.000121111
0.000121111
0.000121111
0.000121221
0.000121221
0.000121221
0.000121221
0.000121232
0.000121221
0.000121221
0.000121221
0.000121221
0.000121221
0.000121221
0.000121221
0.000121221
0.000121232
0.000121221
0.000121221
0.000121221
0.000121221
0.000121222
0.000121222
0.000121222
0.000121222
0.000121223
0.000121222
0.000121222
0.000121222
0.000121222
0.000121221
0.000121221
0.000121221
0.000121221
0.000121232
0.000121221
0.000121221
0.000121221
0.000121221
0.000121221
0.000121221
0.000121221
0.000121221
0.000121232
0.000121221
0.000121221
0.000121221
0.000121221
0.000121222
0.000121222
0.000121222
0.000121222
0.000121223
0.000121222
0.000121222
0.000121222
0.000121222
0.000121221
0.000121221
0.000121221
0.000121221
0.000121232
0.000121221
0.000121221
0.000121221
0.000121221
0.000121221
0.000121221
0.000121221
0.000121221
0.000121232
0.000121221
0.000121221
0.000121221
0.000121221
0.000121222
0.000121222
0.000121222
0.000121222
0.000121223
0.000121222
0.000121222
0.000121222
0.000121222
0.000121221
0.000121221
0.000121221
0.000121221
0.000121232
0.000121221
0.000121221
0.000121221
0.000121221
0.000121221
0.000121221
0.000121221
0.000121221
0.000121232
0.000121221
0.000121221
0.000121221
0.000121221
0.000121222
0.000121222
0.000121222
0.000121222
0.000121223
0.000121222
0.000121222
0.000121222
0.000121222
0.000121221
0.000121221
0.000121221
0.000121221
0.000121232
0.000121221
0.000121221
0.000121221
0.000121221
0.000121221
0.000121221
0.000121221
0.000121221
0.000121232
0.000121221
0.000121221
0.000121221
0.000121221
0.000121222
0.000121222
0.000121222
0.000121222
0.000121223
0.000121222
0.000121222
0.000121222
0.000121222
0.000121221
0.000121221
0.000121221
0.000121221
0.000121232
0.000121221
0.000121221
0.000121221
0.000121221
0.000121221
0.000121221
0.000121221
0.000121221
0.000121232
0.000121221
0.000121221
0.000121221
0.000121221
0.000121222
0.000121222
0.000121222
0.000121222
0.000121223
0.000121222
0.000121222
0.000121222
0.000121222
0.000121221
0.000121221
0.000121221
0.000121221
0.000121232
0.000121221
0.000121221
0.000121221
0.000121221
0.000121221
0.000121221
0.000121221
0.000121221
0.000121232
0.000121221
0.000121221
0.000121221
0.000121221
0.000121222
0.000121222
0.000121222
0.000121222
0.000121223
0.000121222
0.000121222
0.000121222
0.000121222
0.000121221
0.000121221
0.000121221
0.000121221
0.000121232
0.000121221
0.000121221
0.000121221
0.000121221
0.000121221
0.000121221
0.000121221
0.000121221
0.000121232
0.000121221
0.000121221
0.000121221
0.000121221
0.000121222
0.000121222
0.000121222
0.000121222
0.000121223
0.000121222
0.000121222
0.000121222
0.000121222
0.000121221
0.000121221
0.000121221
0.000121221
0.000121232
0.000121221
0.000121221
0.000121221
0.000121221
0.000121221
0.000121221
0.000121221
0.000121221
0.000121232
0.000121221
0.000121221
0.000121221
0.000121221
0.000121222
0.000121222
0.000121222
0.000121222
0.000121223
0.000121222
0.000121222
0.000121222
0.000121222
0.000121221
0.000121221
0.000121221
0.000121221
0.000121232
0.000121221
0.000121221
0.000121221
0.000121221
0.000121221
0.000121221
0.000121221
0.000121221
0.000121232
0.000121221
0.000121221
0.000121221
0.000121221
0.000121222
0.000121222
0.000121222
0.000121222
0.000121223
0.000121222
0.000121222
0.000121222
0.000121222
0.00012111
0.00012111
0.00012111
0.00012111
0.000121121
0.00012111
0.00012111
0.00012111
0.00012111
0.00012111
0.00012111
0.00012111
0.00012111
0.000121121
0.00012111
0.00012111
0.00012111
0.00012111
0.000121111
0.000121111
0.000121111
0.000121111
0.000121112
0.000121111
0.000121111
0.000121111
0.000121111
0.000121221
0.000121221
0.000121221
0.000121221
0.000121232
0.000121221
0.000121221
0.000121221
0.000121221
0.000121221
0.000121221
0.000121221
0.000121221
0.000121232
0.000121221
0.000121221
0.000121221
0.000121221
0.000121222
0.000121222
0.000121222
0.000121222
0.000121223
0.000121222
0.000121222
0.000121222
0.000121222
0.000121221
0.000121221
0.000121221
0.000121221
0.000121232
0.000121221
0.000121221
0.000121221
0.000121221
0.000121221
0.000121221
0.000121221
0.000121221
0.000121232
0.000121221
0.000121221
0.000121221
0.000121221
0.000121222
0.000121222
0.000121222
0.000121222
0.000121223
0.000121222
0.000121222
0.000121222
0.000121222
0.000121221
0.000121221
0.000121221
0.000121221
0.000121232
0.000121221
0.000121221
0.000121221
0.000121221
0.000121221
0.000121221
0.000121221
0.000121221
0.000121232
0.000121221
0.000121221
0.000121221
0.000121221
0.000121222
0.000121222
0.000121222
0.000121222
0.000121223
0.000121222
0.000121222
0.000121222
0.000121222
0.000121221
0.000121221
0.000121221
0.000121221
0.000121232
0.000121221
0.000121221
0.000121221
0.000121221
0.000121221
0.000121221
0.000121221
0.000121221
0.000121232
0.000121221
0.000121221
0.000121221
0.000121221
0.000121222
0.000121222
0.000121222
0.000121222
0.000121223
0.000121222
0.000121222
0.000121222
0.000121222
0.000121221
0.000121221
0.000121221
0.000121221
0.000121232
0.000121221
0.000121221
0.000121221
0.000121221
0.000121221
0.000121221
0.000121221
0.000121221
0.000121232
0.000121221
0.000121221
0.000121221
0.000121221
0.000121222
0.000121222
0.000121222
0.000121222
0.000121223
0.000121222
0.000121222
0.000121222
0.000121222
0.000121221
0.000121221
0.000121221
0.000121221
0.000121232
0.000121221
0.000121221
0.000121221
0.000121221
0.000121221
0.000121221
0.000121221
0.000121221
0.000121232
0.000121221
0.000121221
0.000121221
0.000121221
0.000121222
0.000121222
0.000121222
0.000121222
0.000121223
0.000121222
0.000121222
0.000121222
0.000121222
0.000121221
0.000121221
0.000121221
0.000121221
0.000121232
0.000121221
0.000121221
0.000121221
0.000121221
0.000121221
0.000121221
0.000121221
0.000121221
0.000121232
0.000121221
0.000121221
0.000121221
0.000121221
0.000121222
0.000121222
0.000121222
0.000121222
0.000121223
0.000121222
0.000121222
0.000121222
0.000121222
0.000121221
0.000121221
0.000121221
0.000121221
0.000121232
0.000121221
0.000121221
0.000121221
0.000121221
0.000121221
0.000121221
0.000121221
0.000121221
0.000121232
0.000121221
0.000121221
0.000121221
0.000121221
0.000121222
0.000121222
0.000121222
0.000121222
0.000121223
0.000121222
0.000121222
0.000121222
0.000121222
0.000121221
0.000121221
0.000121221
0.000121221
0.000121232
0.000121221
0.000121221
0.000121221
0.000121221
0.000121221
0.000121221
0.000121221
0.000121221
0.000121232
0.000121221
0.000121221
0.000121221
0.000121221
0.000121222
0.000121222
0.000121222
0.000121222
0.000121223
0.000121222
0.000121222
0.000121222
0.000121222
0.000121221
0.000121221
0.000121221
0.000121221
0.000121232
0.000121221
0.000121221
0.000121221
0.000121221
0.000121221
0.000121221
0.000121221
0.000121221
0.000121232
0.000121221
0.000121221
0.000121221
0.000121221
0.000121222
0.000121222
0.000121222
0.000121222
0.000121223
0.000121222
0.000121222
0.000121222
0.000121222
0.00012111
0.00012111
0.00012111
0.00012111
0.000121121
0.00012111
0.00012111
0.00012111
0.00012111
0.00012111
0.00012111
0.00012111
0.00012111
0.000121121
0.00012111
0.00012111
0.00012111
0.00012111
0.000121111
0.000121111
0.000121111
0.000121111
0.000121112
0.000121111
0.000121111
0.000121111
0.000121111
0.000121221
0.000121221
0.000121221
0.000121221
0.000121232
0.000121221
0.000121221
0.000121221
0.000121221
0.000121221
0.000121221
0.000121221
0.000121221
0.000121232
0.000121221
0.000121221
0.000121221
0.000121221
0.000121222
0.000121222
0.000121222
0.000121222
0.000121223
0.000121222
0.000121222
0.000121222
0.000121222
0.000121221
0.000121221
0.000121221
0.000121221
0.000121232
0.000121221
0.000121221
0.000121221
0.000121221
0.000121221
0.000121221
0.000121221
0.000121221
0.000121232
0.000121221
0.000121221
0.000121221
0.000121221
0.000121222
0.000121222
0.000121222
0.000121222
0.000121223
0.000121222
0.000121222
0.000121222
0.000121222
0.000121221
0.000121221
0.000121221
0.000121221
0.000121232
0.000121221
0.000121221
0.000121221
0.000121221
0.000121221
0.000121221
0.000121221
0.000121221
0.000121232
0.000121221
0.000121221
0.000121221
0.000121221
0.000121222
0.000121222
0.000121222
0.000121222
0.000121223
0.000121222
0.000121222
0.000121222
0.000121222
0.000121221
0.000121221
0.000121221
0.000121221
0.000121232
0.000121221
0.000121221
0.000121221
0.000121221
0.000121221
0.000121221
0.000121221
0.000121221
0.000121232
0.000121221
0.000121221
0.000121221
0.000121221
0.000121222
0.000121222
0.000121222
0.000121222
0.000121223
0.000121222
0.000121222
0.000121222
0.000121222
0.000121221
0.000121221
0.000121221
0.000121221
0.000121232
0.000121221
0.000121221
0.000121221
0.000121221
0.000121221
0.000121221
0.000121221
0.000121221
0.000121232
0.000121221
0.000121221
0.000121221
0.000121221
0.000121222
0.000121222
0.000121222
0.000121222
0.000121223
0.000121222
0.000121222
0.000121222
0.000121222
0.000121221
0.000121221
0.000121221
0.000121221
0.000121232
0.000121221
0.000121221
0.000121221
0.000121221
0.000121221
0.000121221
0.000121221
0.000121221
0.000121232
0.000121221
0.000121221
0.000121221
0.000121221
0.000121222
0.000121222
0.000121222
0.000121222
0.000121223
0.000121222
0.000121222
0.000121222
0.000121222
0.000121221
0.000121221
0.000121221
0.000121221
0.000121232
0.000121221
0.000121221
0.000121221
0.000121221
0.000121221
0.000121221
0.000121221
0.000121221
0.000121232
0.000121221
0.000121221
0.000121221
0.000121221
0.000121222
0.000121222
0.000121222
0.000121222
0.000121223
0.000121222
0.000121222
0.000121222
0.000121222
0.000121221
0.000121221
0.000121221
0.000121221
0.000121232
0.000121221
0.000121221
0.000121221
0.000121221
0.000121221
0.000121221
0.000121221
0.000121221
0.000121232
0.000121221
0.000121221
0.000121221
0.000121221
0.000121222
0.000121222
0.000121222
0.000121222
0.000121223
0.000121222
0.000121222
0.000121222
0.000121222
0.000121221
0.000121221
0.000121221
0.000121221
0.000121232
0.000121221
0.000121221
0.000121221
0.000121221
0.000121221
0.000121221
0.000121221
0.000121221
0.000121232
0.000121221
0.000121221
0.000121221
0.000121221
0.000121222
0.000121222
0.000121222
0.000121222
0.000121223
0.000121222
0.000121222
0.000121222
0.000121222
0.000121221
0.000121221
0.000121221
0.000121221
0.000121232
0.000121221
0.000121221
0.000121221
0.000121221
0.000121221
0.000121221
0.000121221
0.000121221
0.000121232
0.000121221
0.000121221
0.000121221
0.000121221
0.000121222
0.000121222
0.000121222
0.000121222
0.000121223
0.000121222
0.000121222
0.000121222
0.000121222
0.00012111
0.00012111
0.00012111
0.00012111
0.000121121
0.00012111
0.00012111
0.00012111
0.00012111
0.00012111
0.00012111
0.00012111
0.00012111
0.000121121
0.00012111
0.00012111
0.00012111
0.00012111
0.000121111
0.000121111
0.000121111
0.000121111
0.000121112
0.000121111
0.000121111
0.000121111
0.000121111
0.000121221
0.000121221
0.000121221
0.000121221
0.000121232
0.000121221
0.000121221
0.000121221
0.000121221
0.000121221
0.000121221
0.000121221
0.000121221
0.000121232
0.000121221
0.000121221
0.000121221
0.000121221
0.000121222
0.000121222
0.000121222
0.000121222
0.000121223
0.000121222
0.000121222
0.000121222
0.000121222
0.000121221
0.000121221
0.000121221
0.000121221
0.000121232
0.000121221
0.000121221
0.000121221
0.000121221
0.000121221
0.000121221
0.000121221
0.000121221
0.000121232
0.000121221
0.000121221
0.000121221
0.000121221
0.000121222
0.000121222
0.000121222
0.000121222
0.000121223
0.000121222
0.000121222
0.000121222
0.000121222
0.000121221
0.000121221
0.000121221
0.000121221
0.000121232
0.000121221
0.000121221
0.000121221
0.000121221
0.000121221
0.000121221
0.000121221
0.000121221
0.000121232
0.000121221
0.000121221
0.000121221
0.000121221
0.000121222
0.000121222
0.000121222
0.000121222
0.000121223
0.000121222
0.000121222
0.000121222
0.000121222
0.000121221
0.000121221
0.000121221
0.000121221
0.000121232
0.000121221
0.000121221
0.000121221
0.000121221
0.000121221
0.000121221
0.000121221
0.000121221
0.000121232
0.000121221
0.000121221
0.000121221
0.000121221
0.000121222
0.000121222
0.000121222
0.000121222
0.000121223
0.000121222
0.000121222
0.000121222
0.000121222
0.000121221
0.000121221
0.000121221
0.000121221
0.000121232
0.000121221
0.000121221
0.000121221
0.000121221
0.000121221
0.000121221
0.000121221
0.000121221
0.000121232
0.000121221
0.000121221
0.000121221
0.000121221
0.000121222
0.000121222
0.000121222
0.000121222
0.000121223
0.000121222
0.000121222
0.000121222
0.000121222
0.000576521
0.000566251
0.00055598
0.000545572
0.000535437
0.000525166
0.000514895
0.000504625
0.000494229
0.00048408
0.00047381
0.000463539
0.000453268
0.000442886
0.000432725
0.000422454
0.000412184
0.000401913
0.000391543
0.000381369
0.000371099
0.000360828
0.000350557
0.000340201
0.000330014
0.000319743
0.000309473
0.000299125
0.000288928
0.000278658
0.000268387
0.000258116
0.000247783
0.000237572
0.000227301
0.000576172
0.000566045
0.000555635
0.000545231
0.000535099
0.000524828
0.000514556
0.000504413
0.000493899
0.000483755
0.000473483
0.000463212
0.000452939
0.000442674
0.000432411
0.000422139
0.000411867
0.000401595
0.000391229
0.000381158
0.000370794
0.000360522
0.00035025
0.000339896
0.000329714
0.000319526
0.000309178
0.000298834
0.000288641
0.000278369
0.000268098
0.000257895
0.000247502
0.000237297
0.000227025
0.000575483
0.000565354
0.000554942
0.000544677
0.000534412
0.000524147
0.000513883
0.000503872
0.000493355
0.00048309
0.000472825
0.00046256
0.000452297
0.000442137
0.000431755
0.000421602
0.000411238
0.000400974
0.00039071
0.000380535
0.000370168
0.000359903
0.000349639
0.000339466
0.000329123
0.000318932
0.000308581
0.000298317
0.000288052
0.000277787
0.000267523
0.000257388
0.000246995
0.00023673
0.000226465
0.000574566
0.000564314
0.000553916
0.000543795
0.000533535
0.000523133
0.000513003
0.000502868
0.000492351
0.000482212
0.000471959
0.000461582
0.000451434
0.00044118
0.00043081
0.000420752
0.000410385
0.000400023
0.00038986
0.000379606
0.000369252
0.000359082
0.000348829
0.000338652
0.000328213
0.000318033
0.00030778
0.000297443
0.000287256
0.000277003
0.000266673
0.000256532
0.000246206
0.000235884
0.000225682
0.000573322
0.000563061
0.000552528
0.000542535
0.000532286
0.000521918
0.000511799
0.000501541
0.000491027
0.000481014
0.000470758
0.000460397
0.000450267
0.000440001
0.000429528
0.000419487
0.000409229
0.000398883
0.00038873
0.000378471
0.000368028
0.000357953
0.000347695
0.000337436
0.000327105
0.000316939
0.000306591
0.000296335
0.000286162
0.000275903
0.000265589
0.000255408
0.000245076
0.000234819
0.000224631
0.000571715
0.00056132
0.000551074
0.000540992
0.000530605
0.000520474
0.000510088
0.000499964
0.000489622
0.000479384
0.00046924
0.000458867
0.00044873
0.000438497
0.000428042
0.000418007
0.000407647
0.000397497
0.000387262
0.000376915
0.000366668
0.000356431
0.000346268
0.000335921
0.000325751
0.000315515
0.00030512
0.000295033
0.000284706
0.000274521
0.000264279
0.00025396
0.000243721
0.000233483
0.000223287
0.000569776
0.000559399
0.000549313
0.000539053
0.000528688
0.000518589
0.000508232
0.000498125
0.000487867
0.000477514
0.000467403
0.000457051
0.000446927
0.00043668
0.000426339
0.000416216
0.000405758
0.000395707
0.000385461
0.000375131
0.000364996
0.000354669
0.00034452
0.000334209
0.000324055
0.000313809
0.000303497
0.000293337
0.000283033
0.000272868
0.000262619
0.000252319
0.000242149
0.000231855
0.000221681
0.000567341
0.000557234
0.000547005
0.000536784
0.000526561
0.000516327
0.000506091
0.000495863
0.000485642
0.000475418
0.000465185
0.000454968
0.000444739
0.000434499
0.000424282
0.000414054
0.000403743
0.000393643
0.000383406
0.000373178
0.000362958
0.000352732
0.000342501
0.000332283
0.000322054
0.000311815
0.000301597
0.000291369
0.000281137
0.000270919
0.000260689
0.000250459
0.000240236
0.000230007
0.00021978
0.000564825
0.000554792
0.000544442
0.000534342
0.000524148
0.000513805
0.00050371
0.00049351
0.000483167
0.000473065
0.000462859
0.000452518
0.00044242
0.000432085
0.000421966
0.000411776
0.000401448
0.000391321
0.000381131
0.000370811
0.000360677
0.000350486
0.000340173
0.000330033
0.000319841
0.000309536
0.00029938
0.000289091
0.000278949
0.000268736
0.000258454
0.000248305
0.000238095
0.000227818
0.000217659
0.000562155
0.000551931
0.000541612
0.000531554
0.000521325
0.000511006
0.000500953
0.000490724
0.000480406
0.000470333
0.000460124
0.000449819
0.000439732
0.000429433
0.000419343
0.000409132
0.000398839
0.000388735
0.0003784
0.000368198
0.000358087
0.000347863
0.000337585
0.000327476
0.000317262
0.000306992
0.000296878
0.00028661
0.000276493
0.000266277
0.000256008
0.000245873
0.000235666
0.000225415
0.000215273
0.000558992
0.000548794
0.000538604
0.000528419
0.000518234
0.000508036
0.000497845
0.00048766
0.000477475
0.00046729
0.000457099
0.000446782
0.000436683
0.000426498
0.000416301
0.000406109
0.000395924
0.000385739
0.000375474
0.000365403
0.000355218
0.000345033
0.000334848
0.000324652
0.000314467
0.000304293
0.000294108
0.000283912
0.000273719
0.000263534
0.000253349
0.000243164
0.000232969
0.000222775
0.00021259
0.000555421
0.000545378
0.000535217
0.000525066
0.00051475
0.000504697
0.000494537
0.000484237
0.000474169
0.000464016
0.000453703
0.000443547
0.000433527
0.00042324
0.000413159
0.000403006
0.000392847
0.000382569
0.000372478
0.000362332
0.00035206
0.000341963
0.000331809
0.000321541
0.00031143
0.000301265
0.000291006
0.000280896
0.000270741
0.000260585
0.000250335
0.000240216
0.000230061
0.000219817
0.000209692
0.000551705
0.000541855
0.000531574
0.00052139
0.000511103
0.00050108
0.000490901
0.000480629
0.000470586
0.000460552
0.000450209
0.000440166
0.000429975
0.000419716
0.000409666
0.000399493
0.00038943
0.000379113
0.000369055
0.000358869
0.000348625
0.000338555
0.000328375
0.000318258
0.000308133
0.000297943
0.00028772
0.000277647
0.000267459
0.00025727
0.000247047
0.000237058
0.000226847
0.00021663
0.000206532
0.000547969
0.000537807
0.000527489
0.000517489
0.000507249
0.00049709
0.000487093
0.00047686
0.000466714
0.000456781
0.000446399
0.00043624
0.000426234
0.000416015
0.000405856
0.000395837
0.000385689
0.000375413
0.000365375
0.000355151
0.000345005
0.000334978
0.000324769
0.000314664
0.000304516
0.000294324
0.000284167
0.000274112
0.000263916
0.00025377
0.000243723
0.000233566
0.000223314
0.000213261
0.000203089
0.000543822
0.000533434
0.000523327
0.00051331
0.000503183
0.000492971
0.00048293
0.000472803
0.000462598
0.000452549
0.000442436
0.000432242
0.000422192
0.000412077
0.000401885
0.000391824
0.000381565
0.00037157
0.000361455
0.000351209
0.000341208
0.000331081
0.000320836
0.000310834
0.000300718
0.00029048
0.000280465
0.000270348
0.000260123
0.000249999
0.000240005
0.00022975
0.000219625
0.000209627
0.000199394
0.000539249
0.000528999
0.00051889
0.000508804
0.000498793
0.000488551
0.000478456
0.00046845
0.000458354
0.000448195
0.000438172
0.000427945
0.000417848
0.000407815
0.00039759
0.000387498
0.000377412
0.000367376
0.000357288
0.000347142
0.000337105
0.000326889
0.000316803
0.000306744
0.000296532
0.000286441
0.000276397
0.000266198
0.000256108
0.000246125
0.000236033
0.000225842
0.000215753
0.000205677
0.000195483
0.000534459
0.000524242
0.000514265
0.000504214
0.000493989
0.000484003
0.00047394
0.000463888
0.000453746
0.000443614
0.000433549
0.000423325
0.000413338
0.000403276
0.000393223
0.000383021
0.000373012
0.000362951
0.000352948
0.00034263
0.000332618
0.000322547
0.000312371
0.000302353
0.000292298
0.000282239
0.000272053
0.000262021
0.000251963
0.000241827
0.000231689
0.000221625
0.000211558
0.000201403
0.000191364
0.000529597
0.000519318
0.000509358
0.000499244
0.000489216
0.000479188
0.000469063
0.000458951
0.000448769
0.000438945
0.000428778
0.000418595
0.000408625
0.000398501
0.000388528
0.000378316
0.000368334
0.000358218
0.000348225
0.000338016
0.000328033
0.000317927
0.000307771
0.000297893
0.000287738
0.000277616
0.000267477
0.000257477
0.000247476
0.000237305
0.000227293
0.000217183
0.000207173
0.000197018
0.000186998
0.000524457
0.000514285
0.000504103
0.00049419
0.000484086
0.000474007
0.00046399
0.000453819
0.000443893
0.000433941
0.00042365
0.000413697
0.000403559
0.000393599
0.000383636
0.000373363
0.000363402
0.000353272
0.000343348
0.000333213
0.000323081
0.000313107
0.00030311
0.000293013
0.000282927
0.000272795
0.000262822
0.000252819
0.000242719
0.00023263
0.000222618
0.000212508
0.00020254
0.00019233
0.000182341
0.000518988
0.000508921
0.000498766
0.000488861
0.00047871
0.000468801
0.000458733
0.000448589
0.000438674
0.00042859
0.00041845
0.000408518
0.000398394
0.000388471
0.000378391
0.000368273
0.000358332
0.000348217
0.000338284
0.000328205
0.000317966
0.000308054
0.000297982
0.000287872
0.000277922
0.000267826
0.000257868
0.000247794
0.000237695
0.000227728
0.000217651
0.000207559
0.000197592
0.000187503
0.000177532
0.00051336
0.000503304
0.000493411
0.000483287
0.000473231
0.000463318
0.000453199
0.000443143
0.000433086
0.00042318
0.000413071
0.000403015
0.000393102
0.000382983
0.000372927
0.000362871
0.000352953
0.000342851
0.000332784
0.00032286
0.000312732
0.000302802
0.000292862
0.000282775
0.000272719
0.000262658
0.000252711
0.000242631
0.000232575
0.000222635
0.000212559
0.000202503
0.000192447
0.000182497
0.000172423
0.000507518
0.000497625
0.000487728
0.000477459
0.000467575
0.000457688
0.000447414
0.000437525
0.000427427
0.000417586
0.000407476
0.000397382
0.000387529
0.000377427
0.000367338
0.000357422
0.000347513
0.000337293
0.000327384
0.000317329
0.00030728
0.000297334
0.00028729
0.00027723
0.000267275
0.000257212
0.000247306
0.000237234
0.000227163
0.000217254
0.000207078
0.00019714
0.000187186
0.000177134
0.000167083
0.000501575
0.000491872
0.000481763
0.000471657
0.000461771
0.000451724
0.000441623
0.000431746
0.000421635
0.000411753
0.000401693
0.000391614
0.000381715
0.000371669
0.000361593
0.000351677
0.00034164
0.000331549
0.000321647
0.000311561
0.000301658
0.000291611
0.000281538
0.000271755
0.000261679
0.000251616
0.000241687
0.000231649
0.000221587
0.000211657
0.000201598
0.000191665
0.000181618
0.000171564
0.00016164
0.000495642
0.000485799
0.000475546
0.000465658
0.000455555
0.000445663
0.000435565
0.000425671
0.000415727
0.000405646
0.000395734
0.000385656
0.000375754
0.000365666
0.00035576
0.000345678
0.000335778
0.000325825
0.000315757
0.000305843
0.000295756
0.000285849
0.000275777
0.000265877
0.000255685
0.000245766
0.000235817
0.000225753
0.000215833
0.000205772
0.000195839
0.000185787
0.000175853
0.000165798
0.000155859
0.000489433
0.000479471
0.000469369
0.000459478
0.000449517
0.000439575
0.000429478
0.000419564
0.000409512
0.000399568
0.00038961
0.00037952
0.0003696
0.000359513
0.000349745
0.000339614
0.000329702
0.000319649
0.000309692
0.000299748
0.000289671
0.000279737
0.000269664
0.000259868
0.000249766
0.000239839
0.000229786
0.000219707
0.000209888
0.000199817
0.000189874
0.000179807
0.000169985
0.000159917
0.000149969
0.000483231
0.000473094
0.000463137
0.000453177
0.000443248
0.000433134
0.000423174
0.0004132
0.000403242
0.00039332
0.000383198
0.000373239
0.000363424
0.00035342
0.000343502
0.0003334
0.000323429
0.000313469
0.000303533
0.000293427
0.000283465
0.000273505
0.000263536
0.00025359
0.000243502
0.000233533
0.00022357
0.000213733
0.000203769
0.000193691
0.000183732
0.000173765
0.000163803
0.000153728
0.000143762
0.000476553
0.000466718
0.000456697
0.000446706
0.000436712
0.000426735
0.000416744
0.000406902
0.000396888
0.000386895
0.000376917
0.000366926
0.000356964
0.000346971
0.000336952
0.000326961
0.000316981
0.000306991
0.000297011
0.000287154
0.000277145
0.000267163
0.000257172
0.000247183
0.000237201
0.00022734
0.000217346
0.000207363
0.000197244
0.000187257
0.000177265
0.000167397
0.00015741
0.000147424
0.000137439
0.000467967
0.000458225
0.000448328
0.000438585
0.000428662
0.000418946
0.000409203
0.000399445
0.000389565
0.000379803
0.000369934
0.000360183
0.000350422
0.000340683
0.000330801
0.000320926
0.00031118
0.000301406
0.000291662
0.0002819
0.000271937
0.000262161
0.000252415
0.000242657
0.000232899
0.000223107
0.000213192
0.000203398