/*--------------------------------*- C++ -*----------------------------------*\
  =========                 |
  \\      /  F ield         | OpenFOAM: The Open Source CFD Toolbox
   \\    /   O peration     | Website:  https://openfoam.org
    \\  /    A nd           | Version:  10
     \\/     M anipulation  |
\*---------------------------------------------------------------------------*/
FoamFile
{
    format      ascii;
    class       volScalarField;
    location    "1000";
    object      p;
}
// * * * * * * * * * * * * * * * * * * * * * * * * * * * * * * * * * * * * * //

dimensions      [0 2 -2 0 0 0 0];

internalField   nonuniform List<scalar> 
15350
(
0.0500305
0.0500352
0.0500348
0.050034
0.0500343
0.0500347
0.050035
0.0500353
0.0500354
0.0500356
0.0500356
0.0500357
0.0500357
0.0500359
0.0500363
0.050037
0.0500381
0.0500398
0.0500421
0.0500452
0.0500492
0.0500543
0.0500608
0.0500685
0.0500777
0.0500884
0.0500989
0.0500556
0.0500644
0.050068
0.0500698
0.0500718
0.0500737
0.0500756
0.0500775
0.0500794
0.0500813
0.0500832
0.0500851
0.0500869
0.0500886
0.0500904
0.050092
0.0500937
0.0500952
0.0500968
0.0500982
0.0500996
0.050101
0.0501021
0.050103
0.0501037
0.0501039
0.0501038
0.0500586
0.050063
0.0500657
0.0500677
0.0500698
0.0500721
0.0500743
0.0500766
0.0500789
0.0500813
0.0500837
0.0500862
0.0500886
0.050091
0.0500934
0.0500958
0.0500981
0.0501003
0.0501023
0.0501042
0.0501057
0.0501068
0.0501074
0.0501074
0.0501067
0.0501051
0.0501029
0.0500567
0.0500594
0.0500616
0.0500636
0.0500657
0.0500678
0.05007
0.0500721
0.0500743
0.0500765
0.0500787
0.0500809
0.0500831
0.0500853
0.0500874
0.0500894
0.0500914
0.0500933
0.0500951
0.0500968
0.0500982
0.0500993
0.0501001
0.0501005
0.0501003
0.0500996
0.0500981
0.0500541
0.0500565
0.0500586
0.0500606
0.0500627
0.0500649
0.0500671
0.0500694
0.0500717
0.0500739
0.0500762
0.0500784
0.0500806
0.0500827
0.0500848
0.0500868
0.0500887
0.0500905
0.0500922
0.0500936
0.0500949
0.0500958
0.0500964
0.0500966
0.0500963
0.0500954
0.0500937
0.0500509
0.0500532
0.0500553
0.0500573
0.0500595
0.0500618
0.0500641
0.0500664
0.0500687
0.0500711
0.0500734
0.0500757
0.0500779
0.0500801
0.0500822
0.0500843
0.0500862
0.050088
0.0500896
0.050091
0.0500921
0.050093
0.0500934
0.0500933
0.0500927
0.0500915
0.0500895
0.0500471
0.0500494
0.0500515
0.0500536
0.0500558
0.0500581
0.0500604
0.0500628
0.0500652
0.0500676
0.05007
0.0500723
0.0500746
0.0500768
0.0500789
0.0500809
0.0500828
0.0500846
0.0500861
0.0500875
0.0500885
0.0500892
0.0500895
0.0500893
0.0500885
0.050087
0.0500848
0.0500428
0.0500451
0.0500472
0.0500494
0.0500516
0.050054
0.0500564
0.0500588
0.0500612
0.0500637
0.0500661
0.0500684
0.0500707
0.0500729
0.0500751
0.0500771
0.050079
0.0500807
0.0500821
0.0500834
0.0500843
0.0500849
0.050085
0.0500847
0.0500837
0.0500821
0.0500797
0.050038
0.0500404
0.0500425
0.0500447
0.050047
0.0500494
0.0500519
0.0500543
0.0500568
0.0500593
0.0500617
0.0500641
0.0500664
0.0500687
0.0500708
0.0500728
0.0500746
0.0500763
0.0500777
0.0500789
0.0500797
0.0500802
0.0500802
0.0500797
0.0500786
0.0500768
0.0500743
0.0500328
0.0500352
0.0500374
0.0500396
0.050042
0.0500444
0.0500469
0.0500494
0.0500519
0.0500544
0.0500569
0.0500593
0.0500617
0.0500639
0.050066
0.050068
0.0500699
0.0500715
0.0500729
0.050074
0.0500747
0.0500751
0.050075
0.0500744
0.0500731
0.0500712
0.0500684
0.0500272
0.0500295
0.0500318
0.050034
0.0500364
0.0500389
0.0500414
0.050044
0.0500465
0.0500491
0.0500516
0.050054
0.0500564
0.0500587
0.0500608
0.0500628
0.0500646
0.0500662
0.0500675
0.0500685
0.0500692
0.0500695
0.0500693
0.0500686
0.0500672
0.0500651
0.0500623
0.0500211
0.0500234
0.0500257
0.050028
0.0500304
0.0500329
0.0500355
0.0500381
0.0500407
0.0500433
0.0500458
0.0500483
0.0500507
0.0500529
0.0500551
0.0500571
0.0500589
0.0500604
0.0500617
0.0500627
0.0500633
0.0500635
0.0500632
0.0500624
0.0500609
0.0500587
0.0500557
0.0500145
0.0500168
0.0500192
0.0500215
0.0500239
0.0500265
0.0500291
0.0500317
0.0500344
0.050037
0.0500395
0.050042
0.0500445
0.0500467
0.0500489
0.0500509
0.0500526
0.0500542
0.0500554
0.0500564
0.0500569
0.0500571
0.0500567
0.0500558
0.0500542
0.0500519
0.0500488
0.0500075
0.0500098
0.0500121
0.0500145
0.050017
0.0500196
0.0500222
0.0500249
0.0500275
0.0500302
0.0500328
0.0500353
0.0500378
0.0500401
0.0500422
0.0500442
0.050046
0.0500475
0.0500487
0.0500496
0.0500501
0.0500502
0.0500498
0.0500487
0.0500471
0.0500447
0.0500414
0.05
0.0500023
0.0500047
0.050007
0.0500095
0.0500122
0.0500148
0.0500175
0.0500202
0.0500229
0.0500256
0.0500281
0.0500306
0.0500329
0.0500351
0.0500371
0.0500388
0.0500403
0.0500416
0.0500424
0.0500429
0.0500429
0.0500424
0.0500413
0.0500396
0.0500371
0.0500338
0.0499921
0.0499943
0.0499967
0.0499991
0.0500016
0.0500043
0.050007
0.0500097
0.0500125
0.0500152
0.0500178
0.0500204
0.0500229
0.0500253
0.0500275
0.0500295
0.0500312
0.0500327
0.0500339
0.0500348
0.0500352
0.0500352
0.0500346
0.0500335
0.0500317
0.0500291
0.0500257
0.0499837
0.0499859
0.0499883
0.0499907
0.0499932
0.0499959
0.0499986
0.0500014
0.0500042
0.050007
0.0500097
0.0500123
0.0500148
0.0500172
0.0500194
0.0500214
0.0500232
0.0500247
0.0500259
0.0500267
0.0500271
0.0500271
0.0500265
0.0500253
0.0500234
0.0500208
0.0500174
0.0499748
0.049977
0.0499793
0.0499818
0.0499844
0.0499871
0.0499898
0.0499926
0.0499955
0.0499983
0.050001
0.0500037
0.0500062
0.0500086
0.0500109
0.0500129
0.0500147
0.0500162
0.0500174
0.0500182
0.0500186
0.0500185
0.0500179
0.0500167
0.0500148
0.0500121
0.0500086
0.0499655
0.0499676
0.04997
0.0499724
0.049975
0.0499778
0.0499806
0.0499834
0.0499863
0.0499891
0.0499919
0.0499946
0.0499972
0.0499996
0.0500019
0.0500039
0.0500058
0.0500073
0.0500085
0.0500093
0.0500097
0.0500096
0.050009
0.0500078
0.0500058
0.0500031
0.0499996
0.0499557
0.0499577
0.0499601
0.0499626
0.0499652
0.049968
0.0499708
0.0499737
0.0499766
0.0499795
0.0499823
0.049985
0.0499877
0.0499901
0.0499925
0.0499945
0.0499964
0.0499979
0.0499992
0.05
0.0500004
0.0500003
0.0499997
0.0499984
0.0499965
0.0499938
0.0499902
0.0499454
0.0499474
0.0499498
0.0499523
0.049955
0.0499577
0.0499606
0.0499635
0.0499664
0.0499694
0.0499722
0.049975
0.0499777
0.0499802
0.0499826
0.0499847
0.0499866
0.0499882
0.0499895
0.0499903
0.0499908
0.0499907
0.0499901
0.0499888
0.0499869
0.0499841
0.0499806
0.0499347
0.0499367
0.0499391
0.0499416
0.0499442
0.049947
0.0499499
0.0499529
0.0499559
0.0499588
0.0499618
0.0499646
0.0499673
0.0499699
0.0499723
0.0499745
0.0499764
0.0499781
0.0499794
0.0499803
0.0499807
0.0499807
0.0499801
0.0499788
0.0499769
0.0499742
0.0499706
0.0499235
0.0499255
0.0499279
0.0499304
0.0499331
0.0499359
0.0499388
0.0499418
0.0499449
0.0499479
0.0499509
0.0499538
0.0499566
0.0499592
0.0499617
0.0499639
0.0499659
0.0499676
0.0499689
0.0499699
0.0499704
0.0499704
0.0499698
0.0499686
0.0499667
0.049964
0.0499604
0.0499119
0.0499139
0.0499162
0.0499188
0.0499215
0.0499244
0.0499273
0.0499304
0.0499335
0.0499365
0.0499396
0.0499425
0.0499454
0.0499481
0.0499506
0.0499529
0.049955
0.0499567
0.0499581
0.0499591
0.0499597
0.0499597
0.0499592
0.049958
0.0499561
0.0499535
0.04995
0.0498999
0.0499019
0.0499042
0.0499068
0.0499095
0.0499124
0.0499154
0.0499185
0.0499216
0.0499248
0.0499279
0.0499309
0.0499338
0.0499366
0.0499392
0.0499416
0.0499437
0.0499455
0.049947
0.0499481
0.0499487
0.0499488
0.0499483
0.0499472
0.0499454
0.0499428
0.0499393
0.0498875
0.0498894
0.0498918
0.0498943
0.0498971
0.0499
0.0499031
0.0499063
0.0499094
0.0499126
0.0499158
0.0499189
0.0499219
0.0499248
0.0499275
0.0499299
0.0499322
0.0499341
0.0499356
0.0499368
0.0499374
0.0499376
0.0499372
0.0499362
0.0499344
0.0499318
0.0499284
0.0498747
0.0498766
0.049879
0.0498816
0.0498844
0.0498873
0.0498904
0.0498936
0.0498969
0.0499002
0.0499034
0.0499066
0.0499097
0.0499127
0.0499154
0.049918
0.0499203
0.0499223
0.0499239
0.0499252
0.0499259
0.0499262
0.0499259
0.0499249
0.0499232
0.0499207
0.0499173
0.0498615
0.0498635
0.0498658
0.0498684
0.0498713
0.0498743
0.0498774
0.0498807
0.049884
0.0498874
0.0498907
0.049894
0.0498972
0.0499002
0.0499031
0.0499058
0.0499082
0.0499103
0.049912
0.0499133
0.0499142
0.0499146
0.0499143
0.0499135
0.0499118
0.0499094
0.0499061
0.049848
0.04985
0.0498524
0.049855
0.0498578
0.0498609
0.0498641
0.0498674
0.0498708
0.0498743
0.0498777
0.0498811
0.0498844
0.0498875
0.0498905
0.0498933
0.0498958
0.049898
0.0498999
0.0499013
0.0499023
0.0499028
0.0499026
0.0499019
0.0499003
0.049898
0.0498948
0.0498342
0.0498363
0.0498386
0.0498412
0.0498441
0.0498472
0.0498505
0.0498539
0.0498574
0.0498609
0.0498644
0.0498679
0.0498713
0.0498746
0.0498777
0.0498806
0.0498832
0.0498855
0.0498875
0.0498891
0.0498902
0.0498908
0.0498908
0.0498901
0.0498887
0.0498865
0.0498834
0.04982
0.0498222
0.0498245
0.0498272
0.0498301
0.0498333
0.0498366
0.0498401
0.0498437
0.0498473
0.0498509
0.0498545
0.049858
0.0498614
0.0498647
0.0498677
0.0498705
0.0498729
0.0498751
0.0498768
0.049878
0.0498787
0.0498789
0.0498783
0.049877
0.0498749
0.0498719
0.0498056
0.0498079
0.0498102
0.0498129
0.0498159
0.0498191
0.0498225
0.0498261
0.0498297
0.0498335
0.0498372
0.0498409
0.0498446
0.0498481
0.0498515
0.0498546
0.0498576
0.0498602
0.0498625
0.0498643
0.0498657
0.0498666
0.0498669
0.0498665
0.0498653
0.0498633
0.0498604
0.049791
0.0497934
0.0497957
0.0497984
0.0498015
0.0498047
0.0498082
0.0498119
0.0498157
0.0498195
0.0498234
0.0498272
0.049831
0.0498347
0.0498382
0.0498415
0.0498446
0.0498474
0.0498498
0.0498518
0.0498534
0.0498544
0.0498548
0.0498546
0.0498536
0.0498517
0.049849
0.0497762
0.0497787
0.049781
0.0497838
0.0497869
0.0497902
0.0497938
0.0497976
0.0498014
0.0498054
0.0498094
0.0498134
0.0498173
0.0498211
0.0498248
0.0498283
0.0498315
0.0498345
0.0498371
0.0498393
0.049841
0.0498422
0.0498428
0.0498427
0.0498418
0.0498402
0.0498375
0.0497611
0.0497639
0.0497662
0.049769
0.0497722
0.0497756
0.0497793
0.0497831
0.0497871
0.0497912
0.0497953
0.0497995
0.0498035
0.0498075
0.0498114
0.0498151
0.0498185
0.0498216
0.0498244
0.0498268
0.0498287
0.0498301
0.0498308
0.0498309
0.0498302
0.0498287
0.0498262
0.049746
0.049749
0.0497514
0.0497542
0.0497574
0.0497609
0.0497647
0.0497686
0.0497727
0.049777
0.0497812
0.0497855
0.0497898
0.049794
0.049798
0.0498018
0.0498055
0.0498088
0.0498118
0.0498144
0.0498165
0.049818
0.049819
0.0498192
0.0498187
0.0498173
0.049815
0.0497308
0.049734
0.0497364
0.0497393
0.0497426
0.0497462
0.04975
0.0497541
0.0497584
0.0497627
0.0497672
0.0497716
0.0497761
0.0497804
0.0497846
0.0497887
0.0497925
0.0497961
0.0497992
0.049802
0.0498043
0.0498061
0.0498072
0.0498077
0.0498073
0.0498061
0.0498039
0.0497155
0.0497191
0.0497215
0.0497244
0.0497278
0.0497315
0.0497355
0.0497397
0.0497441
0.0497486
0.0497532
0.0497578
0.0497624
0.049767
0.0497714
0.0497757
0.0497797
0.0497835
0.0497869
0.0497899
0.0497924
0.0497944
0.0497957
0.0497963
0.0497962
0.0497951
0.0497931
0.0497003
0.0497042
0.0497066
0.0497096
0.0497131
0.0497169
0.049721
0.0497253
0.0497298
0.0497345
0.0497393
0.0497441
0.0497489
0.0497537
0.0497583
0.0497628
0.0497671
0.0497711
0.0497747
0.0497779
0.0497807
0.0497829
0.0497844
0.0497852
0.0497853
0.0497844
0.0497826
0.0496851
0.0496894
0.0496919
0.0496949
0.0496985
0.0497024
0.0497066
0.0497111
0.0497158
0.0497207
0.0497256
0.0497306
0.0497357
0.0497406
0.0497455
0.0497502
0.0497547
0.0497589
0.0497628
0.0497662
0.0497692
0.0497716
0.0497734
0.0497745
0.0497747
0.049774
0.0497723
0.04967
0.0496747
0.0496773
0.0496804
0.049684
0.0496881
0.0496924
0.0496971
0.0497019
0.049707
0.0497122
0.0497174
0.0497226
0.0497278
0.0497329
0.0497379
0.0497426
0.0497471
0.0497512
0.0497549
0.0497581
0.0497608
0.0497628
0.049764
0.0497645
0.049764
0.0497625
0.049655
0.0496603
0.0496629
0.0496661
0.0496698
0.049674
0.0496785
0.0496833
0.0496884
0.0496936
0.049699
0.0497044
0.0497099
0.0497153
0.0497207
0.0497259
0.0497309
0.0497356
0.04974
0.0497439
0.0497474
0.0497503
0.0497525
0.049754
0.0497546
0.0497543
0.049753
0.0496403
0.0496461
0.0496488
0.0496521
0.0496559
0.0496603
0.0496649
0.0496699
0.0496751
0.0496806
0.0496862
0.0496918
0.0496975
0.0497032
0.0497088
0.0497143
0.0497195
0.0497245
0.0497292
0.0497334
0.0497371
0.0497402
0.0497427
0.0497444
0.0497453
0.0497452
0.049744
0.0496258
0.0496323
0.0496351
0.0496384
0.0496424
0.0496469
0.0496517
0.0496569
0.0496623
0.049668
0.0496738
0.0496797
0.0496856
0.0496916
0.0496975
0.0497032
0.0497087
0.049714
0.0497189
0.0497234
0.0497273
0.0497307
0.0497334
0.0497354
0.0497364
0.0497365
0.0497355
0.0496116
0.0496189
0.0496218
0.0496252
0.0496293
0.049634
0.049639
0.0496443
0.04965
0.0496558
0.0496619
0.049668
0.0496743
0.0496805
0.0496866
0.0496926
0.0496984
0.049704
0.0497092
0.0497139
0.0497182
0.0497218
0.0497247
0.0497269
0.0497281
0.0497284
0.0497276
0.0495979
0.0496059
0.0496089
0.0496124
0.0496167
0.0496215
0.0496267
0.0496323
0.0496381
0.0496442
0.0496505
0.049657
0.0496634
0.0496699
0.0496764
0.0496827
0.0496888
0.0496946
0.0497001
0.0497051
0.0497096
0.0497135
0.0497167
0.049719
0.0497205
0.0497209
0.0497202
0.0495846
0.0495935
0.0495966
0.0496003
0.0496047
0.0496097
0.0496151
0.0496208
0.0496269
0.0496333
0.0496398
0.0496465
0.0496533
0.0496601
0.0496668
0.0496734
0.0496798
0.0496859
0.0496917
0.049697
0.0497018
0.0497059
0.0497093
0.0497119
0.0497135
0.0497141
0.0497136
0.0495719
0.0495818
0.049585
0.0495887
0.0495934
0.0495985
0.0496041
0.0496101
0.0496164
0.049623
0.0496298
0.0496368
0.0496438
0.0496509
0.049658
0.0496649
0.0496716
0.049678
0.0496841
0.0496897
0.0496947
0.0496991
0.0497027
0.0497055
0.0497073
0.049708
0.0497076
0.0495597
0.0495707
0.049574
0.0495779
0.0495827
0.049588
0.0495938
0.0496
0.0496066
0.0496135
0.0496206
0.0496278
0.0496352
0.0496426
0.04965
0.0496572
0.0496642
0.049671
0.0496773
0.0496832
0.0496885
0.0496931
0.049697
0.0496999
0.0497019
0.0497027
0.0497024
0.0495484
0.0495605
0.0495639
0.0495679
0.0495728
0.0495784
0.0495844
0.0495908
0.0495977
0.0496048
0.0496122
0.0496198
0.0496275
0.0496352
0.0496429
0.0496504
0.0496578
0.0496649
0.0496715
0.0496777
0.0496833
0.0496881
0.0496921
0.0496952
0.0496973
0.0496982
0.049698
0.0495381
0.0495513
0.0495548
0.0495588
0.0495639
0.0495696
0.0495759
0.0495826
0.0495897
0.0495971
0.0496048
0.0496127
0.0496207
0.0496288
0.0496368
0.0496447
0.0496524
0.0496598
0.0496668
0.0496732
0.049679
0.0496841
0.0496883
0.0496915
0.0496936
0.0496946
0.0496944
0.0495291
0.0495428
0.0495463
0.0495504
0.0495557
0.0495617
0.0495681
0.0495751
0.0495825
0.0495903
0.0495983
0.0496065
0.0496149
0.0496233
0.0496317
0.04964
0.0496481
0.0496558
0.0496631
0.0496698
0.0496759
0.0496811
0.0496855
0.0496887
0.0496909
0.0496918
0.0496916
0.0495212
0.0495333
0.0495364
0.0495408
0.0495464
0.0495527
0.0495596
0.0495669
0.0495748
0.0495829
0.0495914
0.0496001
0.049609
0.0496179
0.0496268
0.0496356
0.0496441
0.0496523
0.0496601
0.0496672
0.0496736
0.0496791
0.0496836
0.049687
0.0496891
0.04969
0.0496896
0.0495224
0.0495279
0.0495292
0.0495335
0.0495391
0.0495455
0.0495525
0.0495601
0.0495681
0.0495765
0.0495852
0.0495941
0.0496033
0.0496125
0.0496217
0.0496308
0.0496396
0.0496482
0.0496562
0.0496637
0.0496705
0.0496763
0.0496812
0.0496848
0.0496872
0.049688
0.0496875
0.0495835
0.0495941
0.0495981
0.0496029
0.0496071
0.0496119
0.0496174
0.0496237
0.0496307
0.0496381
0.0496459
0.049654
0.0496622
0.0496704
0.0496783
0.0496859
0.0496929
0.0496992
0.0497044
0.0497086
0.0497113
0.0497126
0.0497121
0.0497097
0.0497054
0.0496989
0.0496909
0.0476573
0.0483948
0.0488522
0.0491387
0.0493409
0.0494896
0.0496007
0.0496856
0.0497523
0.0498057
0.0498493
0.0498856
0.0499161
0.0499423
0.049965
0.0499847
0.0500022
0.0500177
0.0500316
0.0500441
0.0500553
0.0500654
0.0500745
0.0500826
0.0500898
0.0500961
0.0501015
0.050106
0.0501096
0.0501122
0.0501139
0.0501144
0.0501147
0.05011
0.0501188
0.0487141
0.0489291
0.0491374
0.0493008
0.0494323
0.0495391
0.0496254
0.0496957
0.0497535
0.0498016
0.049842
0.0498764
0.049906
0.0499317
0.0499542
0.0499742
0.0499921
0.0500081
0.0500225
0.0500356
0.0500475
0.0500583
0.0500681
0.050077
0.0500849
0.0500918
0.0500979
0.0501031
0.0501073
0.0501106
0.0501129
0.0501139
0.0501149
0.0501097
0.0501274
0.0491647
0.0492287
0.0493146
0.0494072
0.0494951
0.0495739
0.0496426
0.0497018
0.0497527
0.0497964
0.0498342
0.0498671
0.0498958
0.0499212
0.0499438
0.0499639
0.049982
0.0499985
0.0500135
0.0500271
0.0500397
0.0500511
0.0500616
0.050071
0.0500796
0.0500872
0.050094
0.0500998
0.0501046
0.0501084
0.0501113
0.0501128
0.0501146
0.0501085
0.0501359
0.0494108
0.0494285
0.0494643
0.0495148
0.0495697
0.0496237
0.0496744
0.0497208
0.0497626
0.0498
0.0498334
0.0498633
0.04989
0.0499141
0.0499359
0.0499556
0.0499737
0.0499902
0.0500053
0.0500193
0.0500322
0.0500441
0.050055
0.050065
0.0500741
0.0500823
0.0500895
0.0500959
0.0501013
0.0501056
0.0501091
0.0501111
0.0501135
0.0501064
0.0501431
0.0495715
0.0495711
0.0495834
0.0496092
0.0496419
0.0496772
0.0497129
0.0497475
0.0497803
0.0498109
0.0498392
0.0498653
0.0498893
0.0499113
0.0499317
0.0499504
0.0499678
0.0499839
0.0499989
0.0500128
0.0500258
0.0500378
0.050049
0.0500593
0.0500688
0.0500773
0.0500851
0.0500919
0.0500977
0.0501025
0.0501064
0.0501089
0.050112
0.0501038
0.0501489
0.0496811
0.0496743
0.0496758
0.0496878
0.0497065
0.0497288
0.0497531
0.0497781
0.049803
0.0498272
0.0498503
0.0498723
0.0498931
0.0499127
0.0499311
0.0499484
0.0499647
0.04998
0.0499944
0.050008
0.0500208
0.0500327
0.0500439
0.0500543
0.0500639
0.0500728
0.0500808
0.0500878
0.0500941
0.0500993
0.0501035
0.0501064
0.05011
0.0501009
0.0501534
0.0497591
0.0497508
0.0497476
0.0497523
0.0497624
0.0497761
0.0497922
0.0498097
0.0498281
0.0498466
0.0498651
0.0498831
0.0499006
0.0499175
0.0499338
0.0499493
0.0499642
0.0499784
0.049992
0.0500049
0.0500172
0.0500288
0.0500398
0.0500502
0.0500598
0.0500686
0.0500768
0.050084
0.0500905
0.050096
0.0501005
0.0501037
0.0501078
0.0500979
0.0501567
0.0498177
0.0498094
0.0498044
0.0498051
0.0498101
0.0498181
0.0498284
0.0498405
0.0498537
0.0498676
0.0498819
0.0498963
0.0499108
0.049925
0.049939
0.0499527
0.049966
0.0499789
0.0499915
0.0500035
0.0500151
0.0500262
0.0500368
0.0500469
0.0500563
0.0500651
0.0500732
0.0500805
0.0500871
0.0500927
0.0500975
0.0501009
0.0501054
0.0500948
0.0501587
0.049863
0.0498553
0.0498498
0.0498485
0.0498504
0.0498547
0.0498612
0.0498692
0.0498785
0.0498888
0.0498997
0.049911
0.0499227
0.0499344
0.0499463
0.0499581
0.0499698
0.0499813
0.0499926
0.0500037
0.0500144
0.0500248
0.0500349
0.0500445
0.0500536
0.0500622
0.0500701
0.0500774
0.0500839
0.0500896
0.0500946
0.0500981
0.0501028
0.0500918
0.0501596
0.049899
0.0498922
0.0498868
0.0498845
0.0498846
0.0498866
0.0498904
0.0498956
0.049902
0.0499093
0.0499175
0.0499262
0.0499355
0.049945
0.0499549
0.0499649
0.049975
0.049985
0.0499951
0.0500051
0.0500149
0.0500245
0.0500339
0.0500429
0.0500516
0.0500598
0.0500675
0.0500747
0.0500811
0.0500868
0.0500917
0.0500954
0.0501002
0.0500889
0.0501595
0.0499284
0.0499224
0.0499173
0.0499146
0.0499136
0.0499142
0.0499162
0.0499194
0.0499236
0.0499288
0.0499348
0.0499414
0.0499486
0.0499562
0.0499643
0.0499726
0.0499811
0.0499899
0.0499987
0.0500076
0.0500164
0.0500252
0.0500338
0.0500422
0.0500503
0.0500581
0.0500654
0.0500723
0.0500786
0.0500841
0.050089
0.0500927
0.0500976
0.050086
0.0501586
0.0499528
0.0499476
0.0499429
0.04994
0.0499385
0.0499382
0.0499389
0.0499407
0.0499434
0.0499469
0.0499512
0.0499561
0.0499616
0.0499676
0.0499741
0.0499809
0.0499881
0.0499955
0.0500031
0.0500109
0.0500187
0.0500266
0.0500344
0.0500421
0.0500496
0.0500569
0.0500638
0.0500703
0.0500763
0.0500817
0.0500865
0.0500902
0.050095
0.0500834
0.0501569
0.0499732
0.0499687
0.0499645
0.0499616
0.0499599
0.049959
0.049959
0.0499598
0.0499613
0.0499636
0.0499665
0.0499701
0.0499742
0.0499788
0.0499839
0.0499894
0.0499953
0.0500016
0.0500081
0.0500148
0.0500216
0.0500286
0.0500356
0.0500426
0.0500495
0.0500561
0.0500626
0.0500687
0.0500744
0.0500795
0.0500841
0.0500877
0.0500925
0.0500809
0.0501547
0.0499907
0.0499867
0.0499829
0.0499802
0.0499783
0.0499771
0.0499766
0.0499767
0.0499775
0.0499788
0.0499808
0.0499832
0.0499862
0.0499897
0.0499936
0.049998
0.0500028
0.0500079
0.0500134
0.0500191
0.050025
0.0500311
0.0500373
0.0500435
0.0500497
0.0500558
0.0500617
0.0500674
0.0500727
0.0500776
0.050082
0.0500855
0.05009
0.0500785
0.0501519
0.0500056
0.0500022
0.0499988
0.0499963
0.0499944
0.049993
0.0499922
0.0499919
0.049992
0.0499927
0.0499938
0.0499954
0.0499975
0.0500001
0.050003
0.0500064
0.0500102
0.0500144
0.0500189
0.0500236
0.0500287
0.0500339
0.0500393
0.0500448
0.0500503
0.0500558
0.0500612
0.0500664
0.0500713
0.0500758
0.0500799
0.0500833
0.0500877
0.0500763
0.0501488
0.0500186
0.0500156
0.0500126
0.0500103
0.0500085
0.0500071
0.050006
0.0500054
0.0500051
0.0500053
0.0500058
0.0500068
0.0500081
0.0500099
0.050012
0.0500146
0.0500175
0.0500208
0.0500244
0.0500283
0.0500325
0.050037
0.0500416
0.0500463
0.0500512
0.050056
0.0500608
0.0500655
0.05007
0.0500742
0.0500781
0.0500813
0.0500854
0.0500743
0.0501453
0.05003
0.0500274
0.0500247
0.0500226
0.0500208
0.0500194
0.0500183
0.0500174
0.0500169
0.0500167
0.0500168
0.0500172
0.050018
0.0500191
0.0500206
0.0500224
0.0500245
0.0500271
0.0500299
0.050033
0.0500365
0.0500401
0.050044
0.0500481
0.0500523
0.0500565
0.0500608
0.0500649
0.050069
0.0500728
0.0500763
0.0500793
0.0500832
0.0500724
0.0501417
0.05004
0.0500377
0.0500353
0.0500334
0.0500318
0.0500304
0.0500292
0.0500283
0.0500276
0.0500271
0.0500268
0.0500268
0.0500271
0.0500277
0.0500286
0.0500298
0.0500313
0.0500332
0.0500353
0.0500377
0.0500404
0.0500434
0.0500466
0.05005
0.0500535
0.0500571
0.0500608
0.0500645
0.0500681
0.0500716
0.0500748
0.0500775
0.0500812
0.0500706
0.050138
0.0500489
0.0500468
0.0500448
0.050043
0.0500415
0.0500402
0.050039
0.050038
0.0500371
0.0500365
0.050036
0.0500357
0.0500356
0.0500358
0.0500362
0.0500369
0.0500378
0.050039
0.0500405
0.0500423
0.0500444
0.0500467
0.0500492
0.050052
0.0500549
0.0500579
0.050061
0.0500642
0.0500673
0.0500704
0.0500733
0.0500759
0.0500792
0.0500688
0.0501342
0.0500568
0.050055
0.0500532
0.0500516
0.0500502
0.050049
0.0500478
0.0500468
0.0500458
0.050045
0.0500443
0.0500438
0.0500434
0.0500432
0.0500433
0.0500435
0.050044
0.0500447
0.0500456
0.0500468
0.0500483
0.05005
0.0500519
0.050054
0.0500563
0.0500588
0.0500613
0.0500639
0.0500666
0.0500693
0.0500719
0.0500742
0.0500774
0.0500672
0.0501306
0.0500639
0.0500623
0.0500607
0.0500593
0.0500581
0.0500569
0.0500558
0.0500547
0.0500537
0.0500528
0.050052
0.0500513
0.0500507
0.0500502
0.0500499
0.0500498
0.0500498
0.0500501
0.0500505
0.0500512
0.0500521
0.0500532
0.0500546
0.0500561
0.0500578
0.0500597
0.0500617
0.0500639
0.0500661
0.0500683
0.0500706
0.0500727
0.0500757
0.0500657
0.0501271
0.0500703
0.0500689
0.0500675
0.0500663
0.0500651
0.050064
0.050063
0.0500619
0.0500609
0.05006
0.0500591
0.0500582
0.0500574
0.0500567
0.0500561
0.0500556
0.0500553
0.0500552
0.0500552
0.0500554
0.0500558
0.0500564
0.0500572
0.0500582
0.0500594
0.0500607
0.0500622
0.0500638
0.0500655
0.0500673
0.0500693
0.0500711
0.050074
0.0500644
0.0501237
0.0500761
0.0500749
0.0500737
0.0500726
0.0500715
0.0500705
0.0500695
0.0500685
0.0500675
0.0500665
0.0500655
0.0500646
0.0500636
0.0500628
0.0500619
0.0500612
0.0500606
0.0500601
0.0500597
0.0500595
0.0500595
0.0500596
0.0500599
0.0500604
0.050061
0.0500618
0.0500628
0.0500639
0.0500651
0.0500664
0.050068
0.0500696
0.0500723
0.0500632
0.0501207
0.0500813
0.0500803
0.0500793
0.0500783
0.0500774
0.0500765
0.0500755
0.0500746
0.0500736
0.0500726
0.0500716
0.0500705
0.0500695
0.0500684
0.0500674
0.0500665
0.0500656
0.0500648
0.0500641
0.0500635
0.050063
0.0500627
0.0500626
0.0500626
0.0500627
0.050063
0.0500635
0.0500641
0.0500648
0.0500658
0.0500669
0.0500683
0.0500709
0.0500624
0.0501185
0.0500862
0.0500853
0.0500844
0.0500835
0.0500827
0.0500818
0.0500809
0.05008
0.050079
0.0500779
0.0500769
0.0500757
0.0500746
0.0500734
0.0500722
0.0500711
0.0500699
0.0500689
0.0500679
0.050067
0.0500662
0.0500656
0.0500651
0.0500647
0.0500645
0.0500644
0.0500645
0.0500647
0.050065
0.0500656
0.0500664
0.0500676
0.0500701
0.0500629
0.0501188
0.0500905
0.0500897
0.0500888
0.050088
0.0500872
0.0500864
0.0500856
0.0500847
0.0500837
0.0500827
0.0500817
0.0500806
0.0500794
0.0500782
0.050077
0.0500757
0.0500744
0.0500732
0.050072
0.0500708
0.0500697
0.0500686
0.0500677
0.0500668
0.050066
0.0500652
0.0500646
0.050064
0.0500635
0.0500631
0.0500628
0.0500629
0.0500641
0.0500564
0.0501156
0.0500955
0.0500951
0.0500949
0.0500948
0.0500946
0.0500944
0.0500942
0.0500938
0.0500934
0.0500928
0.0500921
0.0500912
0.0500902
0.0500891
0.0500878
0.0500863
0.0500847
0.050083
0.0500812
0.0500792
0.0500771
0.0500749
0.0500726
0.0500702
0.0500677
0.0500649
0.0500621
0.050059
0.0500557
0.0500521
0.0500482
0.0500438
0.0500408
0.050025
0.0500741
0.0500977
0.0500968
0.0500958
0.0500948
0.0500937
0.0500927
0.0500915
0.0500903
0.0500891
0.0500878
0.0500865
0.0500851
0.0500837
0.0500822
0.0500807
0.0500793
0.0500779
0.0500765
0.0500753
0.0500742
0.0500732
0.0500725
0.050072
0.0500717
0.0500718
0.0500723
0.0500732
0.0500746
0.0500765
0.050079
0.0500821
0.0500859
0.0500904
0.0500924
0.0501108
0.050102
0.0501015
0.0501011
0.0501007
0.0501002
0.0500997
0.0500991
0.0500984
0.0500975
0.0500965
0.0500954
0.0500942
0.0500928
0.0500913
0.0500897
0.050088
0.0500862
0.0500844
0.0500825
0.0500807
0.0500789
0.0500771
0.0500754
0.0500738
0.0500723
0.050071
0.05007
0.0500691
0.0500684
0.050068
0.0500677
0.0500676
0.0500671
0.0500655
0.0500672
0.050105
0.0501046
0.0501042
0.0501038
0.0501033
0.0501028
0.0501022
0.0501015
0.0501006
0.0500996
0.0500984
0.0500971
0.0500957
0.0500941
0.0500924
0.0500906
0.0500887
0.0500867
0.0500846
0.0500826
0.0500805
0.0500784
0.0500764
0.0500745
0.0500727
0.0500711
0.0500696
0.0500682
0.050067
0.050066
0.050065
0.0500641
0.0500629
0.0500616
0.0500627
0.050108
0.0501077
0.0501074
0.0501071
0.0501067
0.0501062
0.0501056
0.0501049
0.050104
0.050103
0.0501018
0.0501004
0.0500989
0.0500972
0.0500953
0.0500933
0.0500912
0.050089
0.0500867
0.0500843
0.050082
0.0500796
0.0500773
0.0500751
0.050073
0.050071
0.0500692
0.0500676
0.0500661
0.0500648
0.0500636
0.0500624
0.0500612
0.0500602
0.0500598
0.0501109
0.0501107
0.0501104
0.0501102
0.0501099
0.0501094
0.0501089
0.0501082
0.0501073
0.0501063
0.050105
0.0501036
0.0501019
0.0501001
0.0500981
0.0500959
0.0500936
0.0500911
0.0500885
0.0500859
0.0500832
0.0500805
0.0500779
0.0500753
0.0500729
0.0500706
0.0500684
0.0500664
0.0500646
0.0500629
0.0500614
0.05006
0.0500586
0.0500573
0.0500561
0.0501135
0.0501134
0.0501133
0.0501131
0.0501129
0.0501125
0.050112
0.0501113
0.0501104
0.0501094
0.0501081
0.0501065
0.0501048
0.0501028
0.0501007
0.0500983
0.0500957
0.050093
0.0500901
0.0500872
0.0500842
0.0500812
0.0500782
0.0500752
0.0500724
0.0500697
0.0500671
0.0500647
0.0500625
0.0500605
0.0500586
0.0500569
0.0500553
0.0500536
0.0500522
0.0501161
0.0501161
0.050116
0.0501159
0.0501157
0.0501154
0.0501149
0.0501143
0.0501134
0.0501123
0.0501109
0.0501093
0.0501075
0.0501054
0.050103
0.0501004
0.0500976
0.0500946
0.0500915
0.0500882
0.0500848
0.0500814
0.050078
0.0500747
0.0500715
0.0500683
0.0500654
0.0500626
0.05006
0.0500576
0.0500554
0.0500534
0.0500515
0.0500497
0.0500481
0.0501185
0.0501186
0.0501186
0.0501186
0.0501185
0.0501182
0.0501177
0.0501171
0.0501162
0.0501151
0.0501137
0.050112
0.05011
0.0501077
0.0501052
0.0501024
0.0500993
0.050096
0.0500925
0.0500889
0.0500852
0.0500814
0.0500776
0.0500738
0.0500701
0.0500666
0.0500632
0.05006
0.0500571
0.0500543
0.0500518
0.0500495
0.0500474
0.0500454
0.0500436
0.0501208
0.050121
0.0501211
0.0501211
0.0501211
0.0501208
0.0501204
0.0501198
0.0501189
0.0501177
0.0501163
0.0501145
0.0501124
0.0501099
0.0501072
0.0501041
0.0501007
0.0500971
0.0500933
0.0500893
0.0500852
0.0500809
0.0500767
0.0500725
0.0500684
0.0500644
0.0500606
0.050057
0.0500536
0.0500506
0.0500477
0.0500451
0.0500428
0.0500407
0.0500387
0.050123
0.0501232
0.0501235
0.0501236
0.0501236
0.0501234
0.050123
0.0501224
0.0501215
0.0501203
0.0501187
0.0501168
0.0501146
0.0501119
0.0501089
0.0501056
0.050102
0.050098
0.0500938
0.0500894
0.0500848
0.0500802
0.0500755
0.0500708
0.0500662
0.0500617
0.0500575
0.0500535
0.0500497
0.0500463
0.0500431
0.0500403
0.0500378
0.0500355
0.0500334
0.0501251
0.0501254
0.0501258
0.050126
0.050126
0.0501259
0.0501255
0.0501249
0.050124
0.0501227
0.0501211
0.050119
0.0501166
0.0501138
0.0501106
0.0501069
0.0501029
0.0500986
0.050094
0.0500892
0.0500841
0.050079
0.0500738
0.0500686
0.0500635
0.0500586
0.0500539
0.0500494
0.0500453
0.0500415
0.0500381
0.050035
0.0500323
0.0500299
0.0500277
0.0501272
0.0501276
0.050128
0.0501282
0.0501284
0.0501283
0.050128
0.0501273
0.0501264
0.050125
0.0501233
0.0501211
0.0501185
0.0501155
0.050112
0.050108
0.0501037
0.050099
0.0500939
0.0500886
0.0500831
0.0500774
0.0500717
0.050066
0.0500604
0.0500549
0.0500497
0.0500449
0.0500403
0.0500362
0.0500324
0.0500291
0.0500263
0.0500238
0.0500214
0.0501291
0.0501296
0.0501301
0.0501304
0.0501306
0.0501306
0.0501303
0.0501297
0.0501287
0.0501273
0.0501254
0.0501231
0.0501203
0.050117
0.0501132
0.0501089
0.0501042
0.050099
0.0500935
0.0500876
0.0500816
0.0500754
0.0500691
0.0500628
0.0500567
0.0500507
0.0500451
0.0500397
0.0500348
0.0500303
0.0500263
0.0500228
0.0500197
0.0500172
0.0500147
0.050131
0.0501316
0.0501322
0.0501326
0.0501328
0.0501329
0.0501326
0.0501319
0.0501309
0.0501294
0.0501274
0.050125
0.0501219
0.0501183
0.0501142
0.0501095
0.0501044
0.0500987
0.0500927
0.0500863
0.0500797
0.0500729
0.0500661
0.0500592
0.0500525
0.050046
0.0500398
0.0500341
0.0500287
0.0500239
0.0500196
0.0500159
0.0500127
0.0500101
0.0500076
0.0501328
0.0501335
0.0501342
0.0501347
0.050135
0.0501351
0.0501348
0.0501341
0.0501331
0.0501315
0.0501294
0.0501267
0.0501234
0.0501195
0.050115
0.05011
0.0501043
0.0500982
0.0500916
0.0500847
0.0500774
0.05007
0.0500625
0.0500551
0.0500478
0.0500407
0.050034
0.0500278
0.050022
0.0500169
0.0500123
0.0500084
0.0500051
0.0500025
0.0499999
0.0501346
0.0501353
0.0501361
0.0501367
0.0501371
0.0501372
0.050137
0.0501363
0.0501351
0.0501334
0.0501312