/*--------------------------------*- C++ -*----------------------------------*\
  =========                 |
  \\      /  F ield         | OpenFOAM: The Open Source CFD Toolbox
   \\    /   O peration     | Website:  https://openfoam.org
    \\  /    A nd           | Version:  10
     \\/     M anipulation  |
\*---------------------------------------------------------------------------*/
FoamFile
{
    format      ascii;
    class       surfaceScalarField;
    location    "1000";
    object      phi;
}
// * * * * * * * * * * * * * * * * * * * * * * * * * * * * * * * * * * * * * //

dimensions      [0 3 -1 0 0 0 0];

internalField   nonuniform List<scalar> 
30343
(
0.000113546
-2.99991e-05
3.49823e-05
-0.000118529
0.000109511
-1.70258e-05
2.10602e-05
0.000105295
-3.34781e-06
7.56443e-06
0.000100838
1.14727e-05
-7.01611e-06
9.61414e-05
2.76765e-05
-2.29797e-05
9.11899e-05
4.54197e-05
-4.04682e-05
8.59768e-05
6.48904e-05
-5.96772e-05
8.04972e-05
8.6284e-05
-8.08044e-05
7.47468e-05
0.000109815
-0.000104065
6.87262e-05
0.000135712
-0.000129692
6.24319e-05
0.000164213
-0.000157918
5.58636e-05
0.000195565
-0.000188997
4.90221e-05
0.000230024
-0.000223182
4.191e-05
0.000267871
-0.000260759
3.45348e-05
0.000309289
-0.000301914
2.69047e-05
0.000354594
-0.000346964
1.90345e-05
0.000403997
-0.000396127
1.09444e-05
0.00045771
-0.000449619
2.65997e-06
0.000515918
-0.000507633
-5.78519e-06
0.000578756
-0.000570311
-1.43506e-05
0.000646321
-0.000637756
-2.29878e-05
0.000718646
-0.000710009
-3.16384e-05
0.000795702
-0.000787051
-4.02362e-05
0.000877345
-0.000868747
-4.87028e-05
0.000963386
-0.000954919
-5.69375e-05
0.0010535
-0.00104527
0.00114721
-0.00113944
-6.47068e-05
0.000113122
-2.61071e-05
-0.000117014
0.000109246
-1.31502e-05
0.000105093
8.0545e-07
0.000100642
1.59233e-05
9.59128e-05
3.2406e-05
9.09127e-05
5.04199e-05
8.56444e-05
7.01587e-05
8.01082e-05
9.18202e-05
7.43038e-05
0.000115619
6.82318e-05
0.000141784
6.18913e-05
0.000170553
5.52834e-05
0.000202173
4.84097e-05
0.000236897
4.12738e-05
0.000275007
3.38839e-05
0.000316679
2.62496e-05
0.000362228
1.83863e-05
0.00041186
1.03142e-05
0.000465782
2.05942e-06
0.000524172
-6.34397e-06
0.000587159
-1.48544e-05
0.000654832
-2.34227e-05
0.000727215
-3.199e-05
0.000804269
-4.04864e-05
0.000885841
-4.88258e-05
0.000971725
-5.68976e-05
0.00106157
0.00115489
-6.45802e-05
0.000113164
-2.23323e-05
-0.000116939
0.000109198
-9.1845e-06
0.000104981
5.02294e-06
0.000100482
2.04219e-05
9.57049e-05
3.71832e-05
9.06548e-05
5.547e-05
8.5335e-05
7.54786e-05
7.97473e-05
9.74079e-05
7.38932e-05
0.000121474
6.77739e-05
0.000147904
6.13906e-05
0.000176936
5.47454e-05
0.000208818
4.78414e-05
0.000243801
4.06833e-05
0.000282165
3.32806e-05
0.000324082
2.56444e-05
0.000369864
1.7791e-05
0.000419714
9.74178e-06
0.000473831
1.52402e-06
0.00053239
-6.82776e-06
0.000595511
-1.52718e-05
0.000663276
-2.37584e-05
0.000735701
-3.22286e-05
0.000812739
-4.06137e-05
0.000894226
-4.8833e-05
0.000979944
-5.6795e-05
0.00106953
0.00116251
-6.44131e-05
0.000113241
-1.85504e-05
-0.000117022
0.000109207
-5.15114e-06
0.000104918
9.31178e-06
0.000100359
2.49812e-05
9.55272e-05
4.20151e-05
9.04253e-05
6.05719e-05
8.50554e-05
8.08485e-05
7.94196e-05
0.000103044
7.352e-05
0.000127373
6.73587e-05
0.000154065
6.09377e-05
0.000183357
5.426e-05
0.000215496
4.733e-05
0.000250731
4.01533e-05
0.000289342
3.27403e-05
0.000331495
2.51032e-05
0.000377501
1.7259e-05
0.000427558
9.22999e-06
0.00048186
1.04435e-06
0.000540576
-7.26297e-06
0.000603818
-1.56498e-05
0.000671663
-2.40661e-05
0.000744118
-3.24529e-05
0.000821126
-4.07425e-05
0.000902516
-4.8858e-05
0.00098806
-5.67169e-05
0.00107739
0.00117003
-6.42404e-05
0.000113312
-1.47358e-05
-0.000117126
0.000109223
-1.06237e-06
0.00010487
1.36648e-05
0.000100249
2.96017e-05
9.53605e-05
4.6904e-05
9.02051e-05
6.57272e-05
8.47848e-05
8.62688e-05
7.91019e-05
0.000108727
7.31585e-05
0.000133317
6.69575e-05
0.000160266
6.05017e-05
0.000189813
5.3795e-05
0.000222203
4.68426e-05
0.000257684
3.9651e-05
0.000296534
3.22316e-05
0.000338914
2.45971e-05
0.000385136
1.67655e-05
0.00043539
8.75956e-06
0.000489866
6.0792e-07
0.000548727
-7.65404e-06
0.00061208
-1.59839e-05
0.000679993
-2.43313e-05
0.000752465
-3.2638e-05
0.000829433
-4.08371e-05
0.000910715
-4.88547e-05
0.000996078
-5.66133e-05
0.00108515
0.00117746
-6.40394e-05
0.000113274
-1.08806e-05
-0.000117129
0.000109137
3.07422e-06
0.00010473
1.80716e-05
0.000100056
3.42759e-05
9.51158e-05
5.18444e-05
8.99122e-05
7.09309e-05
8.4447e-05
9.17339e-05
7.87229e-05
0.000114451
7.27426e-05
0.000139297
6.65093e-05
0.000166499
6.00266e-05
0.000196296
5.32991e-05
0.00022893
4.63329e-05
0.00026465
3.91353e-05
0.000303731
3.17186e-05
0.000346331
2.40961e-05
0.000392758
1.62866e-05
0.000443199
8.31323e-06
0.000497839
2.05244e-07
0.000556835
-8.00177e-06
0.000620287
-1.62652e-05
0.000688256
-2.45351e-05
0.000760735
-3.27538e-05
0.000837651
-4.08561e-05
0.000918817
-4.87714e-05
0.00100399
-5.64268e-05
0.00109281
0.00118479
-6.37526e-05
0.00011344
-6.97166e-06
-0.000117349
0.000109249
7.26556e-06
0.000104784
2.25364e-05
0.000100051
3.90091e-05
9.50525e-05
5.68427e-05
8.97929e-05
7.61905e-05
8.42745e-05
9.72522e-05
7.85004e-05
0.000120225
7.2474e-05
0.000145323
6.61989e-05
0.000172775
5.96795e-05
0.000202815
5.29211e-05
0.000235689
4.59306e-05
0.000271641
3.87161e-05
0.000310946
3.12905e-05
0.000353756
2.36681e-05
0.000400381
1.5868e-05
0.000450999
7.91427e-06
0.000505793
-1.63662e-07
0.000564913
-8.32987e-06
0.000628454
-1.65417e-05
0.000696468
-2.47495e-05
0.000768943
-3.28965e-05
0.000845798
-4.09193e-05
0.00092684
-4.87502e-05
0.00101182
-5.63196e-05
0.00110038
0.00119203
-6.35606e-05
0.000113496
-3.01199e-06
-0.000117456
0.000109255
1.15069e-05
0.000104739
2.70523e-05
9.99543e-05
4.37936e-05
9.49055e-05
6.18916e-05
8.95972e-05
8.14987e-05
8.40329e-05
0.000102817
7.82162e-05
0.000126041
7.21512e-05
0.000151388
6.58422e-05
0.000179084
5.92942e-05
0.000209363
5.25133e-05
0.000242469
4.55071e-05
0.000278647
3.82844e-05
0.000318168
3.08588e-05
0.000361182
2.32454e-05
0.000407994
1.54637e-05
0.000458781
7.53831e-06
0.000513718
-5.01047e-07
0.000572953
-8.61829e-06
0.000636571
-1.67709e-05
0.000704621
-2.49098e-05
0.000777081
-3.29791e-05
0.000853868
-4.09174e-05
0.000934778
-4.86592e-05
0.00101957
-5.61379e-05
0.00110785
0.00119918
-6.32885e-05
0.000113543
9.97371e-07
-0.000117552
0.000109253
1.57966e-05
0.000104689
3.16168e-05
9.98557e-05
4.86265e-05
9.47593e-05
6.69879e-05
8.94052e-05
8.68528e-05
8.37975e-05
0.000108424
7.79407e-05
0.000131898
7.18395e-05
0.00015749
6.54988e-05
0.000185424
5.89245e-05
0.000215938
5.21233e-05
0.000249271
4.51035e-05
0.000285667
3.78746e-05
0.000325397
3.04511e-05
0.000368606
2.28483e-05
0.000415597
1.50866e-05
0.000466543
7.19073e-06
0.000521614
-8.09123e-07
0.000580953
-8.87691e-06
0.000644639
-1.69704e-05
0.000712714
-2.50409e-05
0.000785152
-3.30339e-05
0.000861861
-4.08894e-05
0.000942634
-4.85443e-05
0.00102722
-5.59341e-05
0.00111524
0.00120624
-6.29956e-05
0.000113577
5.05407e-06
-0.000117634
0.000109241
2.01326e-05
0.000104631
3.62271e-05
9.97524e-05
5.35048e-05
9.46115e-05
7.21288e-05
8.92145e-05
9.22498e-05
8.35663e-05
0.000114073
7.7672e-05
0.000137793
7.1537e-05
0.000163624
6.51671e-05
0.000191794
5.85688e-05
0.000222536
5.17495e-05
0.00025609
4.47182e-05
0.000292698
3.74852e-05
0.00033263
3.00654e-05
0.000376025
2.2475e-05
0.000423187
1.47345e-05
0.000474283
6.86941e-06
0.000529479
-1.09017e-06
0.000588912
-9.10811e-06
0.000652657
-1.71425e-05
0.000720748
-2.51453e-05
0.000793155
-3.30631e-05
0.000869778
-4.08376e-05
0.000950408
-4.84073e-05
0.00103479
-5.57097e-05
0.00112255
0.00121321
-6.26834e-05
0.000113596
9.1551e-06
-0.000117697
0.000109216
2.45123e-05
0.000104563
4.08806e-05
9.96418e-05
5.84256e-05
9.44595e-05
7.73112e-05
8.90226e-05
9.76867e-05
8.33367e-05
0.000119758
7.74077e-05
0.000143722
7.12417e-05
0.000169791
6.48451e-05
0.000198191
5.82252e-05
0.000229156
5.13901e-05
0.000262925
4.43494e-05
0.000299739
3.71143e-05
0.000339865
2.97e-05
0.00038344
2.21235e-05
0.000430764
1.44057e-05
0.000482001
6.57228e-06
0.000537313
-1.34633e-06
0.000596831
-9.31415e-06
0.000660624
-1.72896e-05
0.000728724
-2.52253e-05
0.000801091
-3.3069e-05
0.000877622
-4.07637e-05
0.000958103
-4.82498e-05
0.00104228
-5.54663e-05
0.00112976
0.0012201
-6.23533e-05
0.000113595
1.32973e-05
-0.000117738
0.000109175
2.89327e-05
0.000104481
4.55742e-05
9.95211e-05
6.33859e-05
9.43004e-05
8.2532e-05
8.88267e-05
0.00010316
8.31062e-05
0.000125479
7.71455e-05
0.000149682
7.09513e-05
0.000175985
6.45307e-05
0.000204611
5.78917e-05
0.000235795
5.10431e-05
0.000269774
4.39953e-05
0.000306786
3.67598e-05
0.000347101
2.9353e-05
0.000390847
2.17918e-05
0.000438325
1.40979e-05
0.000489695
6.29724e-06
0.000545114
-1.57978e-06
0.000604708
-9.49721e-06
0.000668542
-1.74138e-05
0.00073664
-2.52831e-05
0.00080896
-3.30536e-05
0.000885393
-4.06698e-05
0.000965719
-4.80734e-05
0.00104968
-5.52053e-05
0.0011369
0.0012269
-6.20068e-05
0.000113572
1.74773e-05
-0.000117752
0.000109114
3.33905e-05
0.000104384
5.03049e-05
9.93872e-05
6.83825e-05
9.41314e-05
8.77878e-05
8.86241e-05
0.000108668
8.28722e-05
0.000131231
7.68828e-05
0.000155672
7.06632e-05
0.000182204
6.42214e-05
0.000211053
5.75659e-05
0.00024245
5.07062e-05
0.000276633
4.36534e-05
0.000313839
3.64198e-05
0.000354334
2.9022e-05
0.000398244
2.14778e-05
0.000445869
1.38092e-05
0.000497363
6.0421e-06
0.000552881
-1.79269e-06
0.000612543
-9.65948e-06
0.000676409
-1.75174e-05
0.000744498
-2.53207e-05
0.000816763
-3.30188e-05
0.000893091
-4.05574e-05
0.000973258
-4.78798e-05
0.001057
-5.49282e-05
0.00114394
0.00123362
-6.16451e-05
0.000113522
2.16913e-05
-0.000117736
0.000109031
3.78822e-05
0.000104266
5.5069e-05
9.9237e-05
7.34119e-05
9.39494e-05
9.30755e-05
8.84119e-05
0.000114205
8.26318e-05
0.000137011
7.66168e-05
0.000161687
7.03749e-05
0.000188446
6.39147e-05
0.000217513
5.72454e-05
0.00024912
5.03772e-05
0.000283502
4.33217e-05
0.000320895
3.6092e-05
0.000361564
2.87051e-05
0.000405631
2.11794e-05
0.000453395
1.35372e-05
0.000505006
5.80471e-06
0.000560613
-1.98724e-06
0.000620334
-9.8031e-06
0.000684224
-1.76024e-05
0.000752298
-2.534e-05
0.000824501
-3.29664e-05
0.000900717
-4.04284e-05
0.00098072
-4.76705e-05
0.00106424
-5.46363e-05
0.00115091
0.00124025
-6.12696e-05
0.000113442
2.59356e-05
-0.000117686
0.00010892
4.24042e-05
0.000104126
5.98632e-05
9.90671e-05
7.84705e-05
9.37511e-05
9.83914e-05
8.81869e-05
0.000119769
8.2382e-05
0.000142816
7.63447e-05
0.000167724
7.00837e-05
0.000194707
6.3608e-05
0.000223989
5.69277e-05
0.0002558
5.00534e-05
0.000290376
4.29977e-05
0.00032795
3.57739e-05
0.000368788
2.83998e-05
0.000413005
2.08942e-05
0.000460901
1.32797e-05
0.00051262
5.58285e-06
0.00056831
-2.16558e-06
0.000628083
-9.93017e-06
0.000691989
-1.76709e-05
0.000760038
-2.53431e-05
0.000832173
-3.28984e-05
0.000908272
-4.02844e-05
0.000988106
-4.74471e-05
0.00107141
-5.43311e-05
0.00115779
0.0012468
-6.08818e-05
0.000113327
3.02065e-05
-0.000117598
0.000108778
4.69526e-05
0.000103958
6.46834e-05
9.88738e-05
8.35547e-05
9.35333e-05
0.000103732
8.79459e-05
0.000125357
8.21196e-05
0.000148642
7.60634e-05
0.00017378
6.97865e-05
0.000200984
6.32985e-05
0.000230477
5.66099e-05
0.000262489
4.97324e-05
0.000297253
4.26788e-05
0.000335004
3.54631e-05
0.000376003
2.81038e-05
0.000420365
2.06199e-05
0.000468385
1.30345e-05
0.000520206
5.3743e-06
0.00057597
-2.32989e-06
0.000635787
-1.00428e-05
0.000699702
-1.77248e-05
0.00076772
-2.53319e-05
0.00083978
-3.28164e-05
0.000915757
-4.01271e-05
0.000995416
-4.72111e-05
0.00107849
-5.40142e-05
0.0011646
0.00125327
-6.04828e-05
0.000113069
3.44956e-05
-0.000117358
0.000108502
5.15191e-05
0.000103664
6.95213e-05
9.85631e-05
8.86559e-05
9.32068e-05
0.000109088
8.76051e-05
0.000130958
8.17666e-05
0.000154481
7.57006e-05
0.000179846
6.94168e-05
0.000207268
6.29256e-05
0.000236968
5.6238e-05
0.000269176
4.93662e-05
0.000304125
4.23237e-05
0.000342047
3.51251e-05
0.000383202
2.77892e-05
0.0004277
2.03356e-05
0.000475838
1.27876e-05
0.000527754
5.17215e-06
0.000583586
-2.48e-06
0.000643439
-1.01338e-05
0.000707356
-1.77499e-05
0.000775337
-2.52851e-05
0.000847315
-3.26923e-05
0.000923164
-3.99216e-05
0.00100265
-4.6921e-05
0.00108549
-5.36377e-05
0.00117131
0.00125965
-6.00193e-05
0.000112975
3.88062e-05
-0.000117286
0.000108386
5.61079e-05
0.000103526
7.43816e-05
9.84025e-05
9.37792e-05
9.30246e-05
0.000114466
8.74022e-05
0.000136581
8.15444e-05
0.000160338
7.54611e-05
0.00018593
6.91625e-05
0.000213567
6.26594e-05
0.000243471
5.59637e-05
0.000275872
4.90879e-05
0.000311001
4.20461e-05
0.000349088
3.48537e-05
0.000390395
2.75299e-05
0.000435024
2.00947e-05
0.000483273
1.25718e-05
0.000535277
4.98826e-06
0.000591169
-2.62502e-06
0.000651053
-1.02331e-05
0.000714964
-1.7797e-05
0.0007829
-2.52741e-05
0.000854792
-3.26179e-05
0.000930508
-3.97794e-05
0.00100981
-4.67075e-05
0.00109242
-5.33506e-05
0.00117796
0.00126596
-5.96574e-05
0.00011273
4.31309e-05
-0.000117055
0.000108127
6.07106e-05
0.000103253
7.92558e-05
9.81166e-05
9.89159e-05
9.27261e-05
0.000119857
8.70922e-05
0.000142215
8.12244e-05
0.000166206
7.51331e-05
0.000192021
6.8829e-05
0.000219871
6.23235e-05
0.000249977
5.56289e-05
0.000282567
4.87584e-05
0.000317871
4.17267e-05
0.00035612
3.45495e-05
0.000397572
2.72467e-05
0.000442327
1.98386e-05
0.000490681
1.23493e-05
0.000542766
4.80603e-06
0.000598712
-2.76035e-06
0.000658619
-1.0315e-05
0.000722518
-1.78194e-05
0.000790405
-2.52311e-05
0.000862204
-3.25048e-05
0.000937782
-3.9592e-05
0.00101689
-4.64428e-05
0.00109927
-5.30066e-05
0.00118452
0.00127219
-5.9233e-05
0.000112433
4.74646e-05
-0.000116767
0.000107821
6.53226e-05
0.000102938
8.41392e-05
9.7792e-05
0.000104062
9.23931e-05
0.000125256
8.67519e-05
0.000147856
8.08782e-05
0.00017208
7.47828e-05
0.000198116
6.8477e-05
0.000226176
6.19726e-05
0.000256481
5.52824e-05
0.000289257
4.84203e-05
0.000324734
4.14015e-05
0.000363139
3.42421e-05
0.000404731
2.69626e-05
0.000449607
1.95837e-05
0.00049806
1.21297e-05
0.00055022
4.62799e-06
0.000606214
-2.89041e-06
0.000666137
-1.03909e-05
0.000730019
-1.78351e-05
0.000797849
-2.51813e-05
0.00086955
-3.23847e-05
0.000944985
-3.93978e-05
0.00102391
-4.61715e-05
0.00110604
-5.26562e-05
0.001191
0.00127833
-5.88028e-05
0.00011208
5.18027e-05
-0.000116418
0.000107463
6.99394e-05
0.000102575
8.90273e-05
9.74244e-05
0.000109212
9.20217e-05
0.000130658
8.63775e-05
0.0001535
8.05021e-05
0.000177955
7.44067e-05
0.000204212
6.8103e-05
0.00023248
6.16034e-05
0.000262981
5.49212e-05
0.000295939
4.80707e-05
0.000331584
4.10676e-05
0.000370142
3.39288e-05
0.00041187
2.6675e-05
0.00045686
1.93273e-05
0.000505408
1.19104e-05
0.000557637
4.45183e-06
0.000613673
-3.01739e-06
0.000673607
-1.04627e-05
0.000737464
-1.78462e-05
0.000805233
-2.51265e-05
0.000876831
-3.22595e-05
0.000952118
-3.91983e-05
0.00103085
-4.58951e-05
0.00111274
-5.2301e-05
0.00119741
0.0012844
-5.83679e-05
0.000111665
5.61409e-05
-0.000116003
0.000107048
7.45562e-05
0.00010216
9.39155e-05
9.70099e-05
0.000114362
9.16078e-05
0.00013606
8.59651e-05
0.000159143
8.00924e-05
0.000183828
7.40012e-05
0.000210303
6.77036e-05
0.000238778
6.12126e-05
0.000269472
5.45419e-05
0.00030261
4.77064e-05
0.00033842
4.07223e-05
0.000377126
3.36068e-05
0.000418985
2.63812e-05
0.000464086
1.9067e-05
0.000512722
1.1689e-05
0.000565015
4.27521e-06
0.000621086
-3.14351e-06
0.000681025
-1.05327e-05
0.000744853
-1.78547e-05
0.000812554
-2.50685e-05
0.000884044
-3.21307e-05
0.00095918
-3.89953e-05
0.00103771
-4.5615e-05
0.00111936
-5.19421e-05
0.00120374
0.00129039
-5.79296e-05
0.000111184
6.04739e-05
-0.000115517
0.000106572
7.9168e-05
0.000101689
9.87988e-05
9.65442e-05
0.000119507
9.11475e-05
0.000141457
8.55109e-05
0.000164779
7.96453e-05
0.000189694
7.35626e-05
0.000216386
6.72753e-05
0.000245065
6.07969e-05
0.00027595
5.41414e-05
0.000309265
4.73244e-05
0.000345237
4.03624e-05
0.000384088
3.32732e-05
0.000426074
2.60784e-05
0.000471281
1.88e-05
0.000520001
1.14632e-05
0.000572352
4.09582e-06
0.000628454
-3.27097e-06
0.000688392
-1.06029e-05
0.000752185
-1.78624e-05
0.000819814
-2.50092e-05
0.000891191
-3.20001e-05
0.000966171
-3.87901e-05
0.0010445
-4.53327e-05
0.0011259
-5.1581e-05
0.00120999
0.00129629
-5.74891e-05
0.000110633
6.47964e-05
-0.000114956
0.000106031
8.377e-05
0.000101158
0.000103672
9.6023e-05
0.000124642
9.06366e-05
0.000146844
8.50108e-05
0.000170405
7.9157e-05
0.000195547
7.30873e-05
0.000222455
6.68147e-05
0.000251338
6.03528e-05
0.000282412
5.37165e-05
0.000315901
4.69215e-05
0.000352032
3.9985e-05
0.000391024
3.29252e-05
0.000433134
2.57641e-05
0.000478442
1.8524e-05
0.000527241
1.12303e-05
0.000579645
3.91131e-06
0.000635773
-3.40197e-06
0.000695705
-1.06753e-05
0.000759459
-1.78714e-05
0.00082701
-2.49502e-05
0.00089827
-3.18694e-05
0.00097309
-3.85844e-05
0.00105122
-4.50495e-05
0.00113237
-5.1219e-05
0.00121616
0.00130212
-5.70475e-05
0.000110007
6.91037e-05
-0.000114315
0.000105421
8.83568e-05
0.000100562
0.000108531
9.54421e-05
0.000129762
9.00709e-05
0.000152215
8.4461e-05
0.000176015
7.86237e-05
0.000201385
7.25716e-05
0.000228507
6.6318e-05
0.000257591
5.98771e-05
0.000288853
5.32639e-05
0.000322515
4.64947e-05
0.000358801
3.95872e-05
0.000397932
3.25599e-05
0.000440161
2.54353e-05
0.000485567
1.82361e-05
0.00053444
1.0988e-05
0.000586893
3.71936e-06
0.000643041
-3.53869e-06
0.000702963
-1.0752e-05
0.000766672
-1.78835e-05
0.000834142
-2.48935e-05
0.00090528
-3.17402e-05
0.000979937
-3.83796e-05
0.00105786
-4.4767e-05
0.00113875
-5.08572e-05
0.00122225
0.00130787
-5.6606e-05
0.000109302
7.33903e-05
-0.000113588
0.000104735
9.29233e-05
9.98968e-05
0.000113369
9.47971e-05
0.000134861
8.94464e-05
0.000157565
8.38573e-05
0.000181604
7.80414e-05
0.000207201
7.20117e-05
0.000234537
6.57818e-05
0.000263821
5.93661e-05
0.000295268
5.27802e-05
0.000329101
4.60407e-05
0.00036554
3.91658e-05
0.000404807
3.21745e-05
0.000447153
2.50895e-05
0.000492651
1.7934e-05
0.000541596
1.07338e-05
0.000594094
3.51765e-06
0.000650258
-3.68333e-06
0.000710164
-1.0835e-05
0.000773824
-1.79006e-05
0.000841207
-2.48408e-05
0.00091222
-3.16141e-05
0.00098671
-3.81773e-05
0.00106442
-4.44864e-05
0.00114506
-5.0497e-05
0.00122826
0.00131354
-5.61658e-05
0.000108511
7.76513e-05
-0.000112772
0.000103971
9.74641e-05
9.91579e-05
0.000118182
9.40838e-05
0.000139935
8.87589e-05
0.00016289
8.31957e-05
0.000187167
7.74064e-05
0.00021299
7.1404e-05
0.00024054
6.52024e-05
0.000270023
5.88165e-05
0.000301654
5.22622e-05
0.000335655
4.55565e-05
0.000372246
3.87179e-05
0.000411645
3.1766e-05
0.000454105
2.47238e-05
0.000499694
1.76148e-05
0.000548705
1.04653e-05
0.000601243
3.30388e-06
0.000657419
-3.83804e-06
0.000717306
-1.09264e-05
0.000780912
-1.79247e-05
0.000848205
-2.47938e-05
0.000919089
-3.14928e-05
0.000993409
-3.7979e-05
0.0010709
-4.4209e-05
0.00115129
-5.01395e-05
0.00123419
0.00131913
-5.57278e-05
0.000107534
8.18766e-05
-0.000111759
0.000103028
0.000101969
9.82512e-05
0.000122959
9.32128e-05
0.000144974
8.79238e-05
0.000168179
8.2397e-05
0.000192694
7.66447e-05
0.000218742
7.06801e-05
0.000246504
6.45174e-05
0.000276185
5.81717e-05
0.000308
5.16594e-05
0.000342167
4.49977e-05
0.000378908
3.82057e-05
0.000418437
3.13031e-05
0.000461007
2.43135e-05
0.000506683
1.72605e-05
0.000555758
1.01707e-05
0.000608333
3.07305e-06
0.000664517
-4.00121e-06
0.000724381
-1.1018e-05
0.000787929
-1.7941e-05
0.000855128
-2.47315e-05
0.00092588
-3.1349e-05
0.00100003
-3.77514e-05
0.00107731
-4.38961e-05
0.00115744
-4.97404e-05
0.00124003
0.00132463
-5.52428e-05
0.000106659
8.60682e-05
-0.000110851
0.000102187
0.000106442
9.74422e-05
0.000127703
9.24359e-05
0.00014998
8.71787e-05
0.000173437
8.16837e-05
0.000198189
7.59631e-05
0.000224463
7.00305e-05
0.000252437
6.39004e-05
0.000282315
5.75882e-05
0.000314312
5.11104e-05
0.000348645
4.4485e-05
0.000385533
3.7731e-05
0.000425191
3.08689e-05
0.000467869
2.39225e-05
0.00051363
1.69158e-05
0.000562764
9.8757e-06
0.000615373
2.83126e-06
0.000671561
-4.18604e-06
0.000731398
-1.11422e-05
0.000794885
-1.80008e-05
0.000861987
-2.47237e-05
0.000932603
-3.12705e-05
0.00100657
-3.75998e-05
0.00108364
-4.36695e-05
0.00116351
-4.94376e-05
0.0012458
0.00133006
-5.48633e-05
0.000105588
9.02172e-05
-0.000109737
0.000101158
0.000110872
9.64558e-05
0.000132406
9.14919e-05
0.000154944
8.62771e-05
0.000178651
8.08245e-05
0.000203642
7.51464e-05
0.000230141
6.92567e-05
0.000258327
6.317e-05
0.000288402
5.6902e-05
0.00032058
5.04696e-05
0.000355077
4.38909e-05
0.000392112
3.71856e-05
0.000431897
3.03742e-05
0.000474681
2.34811e-05
0.000520523
1.65305e-05
0.000569715
9.5496e-06
0.000622354
2.56768e-06
0.000678543
-4.38368e-06
0.000738349
-1.12705e-05
0.000801772
-1.80566e-05
0.000868773
-2.47038e-05
0.00093925
-3.11725e-05
0.00101304
-3.74215e-05
0.00108989
-4.34095e-05
0.0011695
-4.90951e-05
0.00125149
0.0013354
-5.44383e-05
0.000104413
9.43175e-05
-0.000108513
0.000100032
0.000115253
9.53781e-05
0.000137059
9.04625e-05
0.00015986
8.52959e-05
0.000183818
7.98914e-05
0.000209046
7.42615e-05
0.000235771
6.84201e-05
0.000264168
6.23821e-05
0.00029444
5.61634e-05
0.000326799
4.97812e-05
0.00036146
4.32539e-05
0.000398639
3.66016e-05
0.000438549
2.98451e-05
0.000481437
2.3009e-05
0.000527359
1.61181e-05
0.000576606
9.19957e-06
0.000629272
2.28307e-06
0.000685459
-4.59977e-06
0.000745232
-1.1415e-05
0.000808587
-1.81264e-05
0.000875485
-2.46963e-05
0.00094582
-3.10853e-05
0.00101943
-3.72526e-05
0.00109605
-4.31576e-05
0.0011754
-4.87597e-05
0.00125709
0.00134066
-5.40194e-05
0.000103131
9.83631e-05
-0.000107176
9.8804e-05
0.000119579
9.42048e-05
0.000141658
8.93435e-05
0.000164721
8.4231e-05
0.00018893
7.88805e-05
0.000214397
7.33045e-05
0.000241347
6.75171e-05
0.000269955
6.15332e-05
0.000300424
5.53691e-05
0.000332963
4.90421e-05
0.000367787
4.25711e-05
0.00040511
3.59762e-05
0.000445144
2.92788e-05
0.000488135
2.25037e-05
0.000534134
1.5676e-05
0.000583433
8.82331e-06
0.000636125
1.97527e-06
0.000692307
-4.83631e-06
0.000752044
-1.15774e-05
0.000815328
-1.82121e-05
0.000882119
-2.47027e-05
0.00095231
-3.10101e-05
0.00102574
-3.70943e-05
0.00110214
-4.29151e-05
0.00118122
-4.84324e-05
0.0012626
0.00134583
-5.36075e-05
0.000101736
0.000102348
-0.000105721
9.74704e-05
0.000123845
9.29317e-05
0.000146197
8.81308e-05
0.000169522
8.30785e-05
0.000193983
7.77879e-05
0.000219687
7.22718e-05
0.000246863
6.6544e-05
0.000275683
6.06199e-05
0.000306348
5.45157e-05
0.000339067
4.82492e-05
0.000374053
4.18392e-05
0.00041152
3.53065e-05
0.000451677
2.86725e-05
0.000494769
2.19626e-05
0.000540844
1.5202e-05
0.000590194
8.41855e-06
0.000642909
1.64217e-06
0.000699084
-5.09523e-06
0.000758781
-1.17596e-05
0.000821992
-1.83151e-05
0.000888675
-2.47243e-05
0.00095872
-3.09484e-05
0.00103196
-3.69478e-05
0.00110814
-4.26828e-05
0.00118696
-4.8114e-05
0.00126804
0.00135092
-5.32034e-05
0.000100226
0.000106266
-0.000104144
9.60267e-05
0.000128044
9.15547e-05
0.000150669
8.68203e-05
0.000174256
8.18344e-05
0.000198969
7.66099e-05
0.000224912
7.11595e-05
0.000252313
6.54974e-05
0.000281345
5.96387e-05
0.000312207
5.36e-05
0.000345106
4.73992e-05
0.000380254
4.10554e-05
0.000417864
3.45896e-05
0.000458142
2.80237e-05
0.000501335
2.13832e-05
0.000547484
1.46936e-05
0.000596884
7.9831e-06
0.000649619
1.28175e-06
0.000705785
-5.37841e-06
0.000765441
-1.19633e-05
0.000828577
-1.84371e-05
0.000895149
-2.47627e-05
0.000965045
-3.09014e-05
0.0010381
-3.68142e-05
0.00111405
-4.24617e-05
0.0011926
-4.78053e-05
0.00127338
0.00135593
-5.28076e-05
9.85946e-05
0.000110111
-0.00010244
9.44685e-05
0.000132171
9.00696e-05
0.000155068
8.54081e-05
0.000178918
8.04948e-05
0.000203882
7.53426e-05
0.000230064
6.99642e-05
0.000257692
6.43736e-05
0.000286936
5.85863e-05
0.000317994
5.26188e-05
0.000351073
4.64891e-05
0.000386384
4.02168e-05
0.000424136
3.38229e-05
0.000464536
2.73297e-05
0.000507828
2.0763e-05
0.000554051
1.41486e-05
0.000603498
7.51481e-06
0.000656253
8.92009e-07
0.000712408
-5.68767e-06
0.000772021
-1.21901e-05
0.00083508
-1.85796e-05
0.000901538
-2.48191e-05
0.000971284
-3.08703e-05
0.00104415
-3.66945e-05
0.00111987
-4.22528e-05
0.00119816
-4.75072e-05
0.00127863
0.00136084
-5.24209e-05
9.68386e-05
0.000113876
-0.000100604
9.27919e-05
0.000136217
8.84724e-05
0.000159388
8.38902e-05
0.0001835
7.90559e-05
0.000208716
7.39824e-05
0.000235137
6.86822e-05
0.000262992
6.31694e-05
0.000292449
5.74593e-05
0.000323704
5.15688e-05
0.000356964
4.55159e-05
0.000392437
3.93204e-05
0.000430332
3.30036e-05
0.000470853
2.6588e-05
0.000514243
2.00997e-05
0.000560539
1.35647e-05
0.000610033
7.01162e-06
0.000662806
4.71061e-07
0.000718949
-6.02476e-06
0.000778517
-1.24417e-05
0.000841497
-1.8744e-05
0.000907841
-2.48948e-05
0.000977435
-3.08562e-05
0.00105011
-3.65896e-05
0.00112561
-4.20568e-05
0.00120363
-4.72203e-05
0.0012838
0.00136566
-5.20438e-05
9.49537e-05
0.000117556
-9.86337e-05
9.09928e-05
0.000140178
8.67592e-05
0.000163621
8.22629e-05
0.000187996
7.75142e-05
0.000213465
7.25258e-05
0.000240126
6.73102e-05
0.000268208
6.18813e-05
0.000297877
5.62547e-05
0.000329331
5.04471e-05
0.000362771
4.44768e-05
0.000398407
3.83636e-05
0.000436445
3.21291e-05
0.000477088
2.57961e-05
0.000520576
1.93908e-05
0.000566945
1.29397e-05
0.000616484
6.47155e-06
0.000669274
1.70785e-08
0.000725403
-6.39131e-06
0.000784925
-1.27194e-05
0.000847825
-1.89316e-05
0.000914053
-2.4991e-05
0.000983495
-3.086e-05
0.00105598
-3.65005e-05
0.00113125
-4.18745e-05
0.001209
-4.69452e-05
0.00128887
0.0013704
-5.16768e-05
9.2936e-05
0.000121145
-9.65245e-05
8.90674e-05
0.000144047
8.49263e-05
0.000167762
8.05224e-05
0.0001924
7.58659e-05
0.000218121
7.09693e-05
0.000245022
6.58447e-05
0.000273332
6.05063e-05
0.000303216
5.49694e-05
0.000334868
4.92507e-05
0.00036849
4.33688e-05
0.000404289
3.73436e-05
0.00044247
3.11968e-05
0.000483234
2.49516e-05
0.000526822
1.86343e-05
0.000573262
1.22716e-05
0.000622847
5.8927e-06
0.000675653
-4.71669e-07
0.000731767
-6.78891e-06
0.000791242
-1.30248e-05
0.000854061
-1.91436e-05
0.000920172
-2.51088e-05
0.00098946
-3.08828e-05
0.00106176
-3.64279e-05
0.00113679
-4.17066e-05
0.00121428
-4.66823e-05
0.00129384
0.00137503
-5.13201e-05
9.06994e-05
0.000124631
-9.41858e-05
8.69331e-05
0.000147813
8.28949e-05
0.0001718
7.85941e-05
0.000196701
7.40407e-05
0.000222675
6.92467e-05
0.000249816
6.42245e-05
0.000278354
5.89877e-05
0.000308452
5.35518e-05
0.000340304
4.79335e-05
0.000374108
4.21512e-05
0.000410071
3.62251e-05
0.000448396
3.01772e-05
0.000489282
2.40306e-05
0.000532968
1.7812e-05
0.000579481
1.15483e-05
0.00062911
5.26871e-06
0.000681933
-9.95663e-07
0.000738032
-7.2122e-06
0.000797459
-1.33466e-05
0.000860195
-1.93633e-05
0.000926188
-2.52258e-05
0.000995322
-3.08969e-05
0.00106743
-3.63391e-05
0.00114223
-4.15154e-05
0.00121946
-4.63897e-05
0.00129872
0.00137957
-5.09276e-05
8.84892e-05
0.000128016
-9.18739e-05
8.48249e-05
0.000151477
8.08889e-05
0.000175736
7.66901e-05
0.0002009
7.22382e-05
0.000227127
6.7545e-05
0.00025451
6.26225e-05
0.000283277
5.74845e-05
0.000313591
5.2146e-05
0.000345642
4.66239e-05
0.00037963
4.09368e-05
0.000415758
3.5105e-05
0.000454228
2.91504e-05
0.000495237
2.30966e-05
0.000539022
1.69705e-05
0.000585607
1.07992e-05
0.000635282
4.61213e-06
0.00068812
-1.55938e-06
0.000744203
-7.68256e-06
0.000803582
-1.3723e-05
0.000866235
-1.96452e-05
0.00093211
-2.54126e-05
0.00100109
-3.09882e-05
0.001073
-3.63347e-05
0.00114758
-4.14156e-05
0.00122454
-4.61951e-05
0.0013035
0.00138402
-5.06392e-05
8.60511e-05
0.000131289
-8.93247e-05
8.24991e-05
0.000155029
7.86758e-05
0.00017956
7.45899e-05
0.000204986
7.02507e-05
0.000231466
6.56696e-05
0.000259091
6.08584e-05
0.000288088
5.58305e-05
0.000318618
5.06011e-05
0.000350872
4.5187e-05
0.000385045
3.96067e-05
0.000421339
3.38805e-05
0.000459954
2.80308e-05
0.000501087
2.20811e-05
0.000544972
1.60585e-05
0.000591629
9.99043e-06
0.00064135
3.90653e-06
0.000694203
-2.1618e-06
0.000750272
-8.18161e-06
0.000809602
-1.41185e-05
0.000872172
-1.99368e-05
0.000937929
-2.56003e-05
0.00100675
-3.1072e-05
0.00107848
-3.63151e-05
0.00115282
-4.12931e-05
0.00122952
-4.59709e-05
0.00130818
0.00138836
-5.03149e-05
8.34661e-05
0.000134445
-8.66217e-05
8.00331e-05
0.000158462
7.63296e-05
0.000183263
7.23636e-05
0.000208952
6.81441e-05
0.000235685
6.36821e-05
0.000263553
5.8989e-05
0.000292781
5.40782e-05
0.000323529
4.89645e-05
0.000355985
4.36648e-05
0.000390344
3.81975e-05
0.000426806
3.25832e-05
0.000465568
2.68443e-05
0.000506825
2.10044e-05
0.000550812
1.50909e-05
0.000597543
9.13132e-06
0.000647309
3.15555e-06
0.000700179
-2.80487e-06
0.000756232
-8.71688e-06
0.000815514
-1.4546e-05
0.000878001
-2.02567e-05
0.00094364
-2.58127e-05
0.00101231
-3.11773e-05
0.00108384
-3.63139e-05
0.00115796
-4.11863e-05
0.00123439
-4.57599e-05
0.00131275
0.0013926
-5.00014e-05
8.07312e-05
0.000137476
-8.37623e-05
7.74241e-05
0.00016177
7.38474e-05
0.00018684
7.00086e-05
0.00021279
6.59159e-05
0.000239778
6.15801e-05
0.000267888
5.70121e-05
0.000297349
5.22251e-05
0.000328316
4.72338e-05
0.000360976
4.2055e-05
0.000395523
3.67073e-05
0.000432154
3.12111e-05
0.000471065
2.55889e-05
0.000512448
1.98647e-05
0.000556536
1.40659e-05
0.000603342
8.2203e-06
0.000653155
2.35784e-06
0.000706042
-3.48976e-06
0.00076208
-9.28934e-06
0.000821313
-1.50064e-05
0.000883718
-2.06054e-05
0.000949239
-2.60502e-05
0.00101775
-3.13043e-05
0.00108909
-3.63312e-05
0.00116299
-4.10952e-05
0.00123915
-4.55619e-05
0.00131722
0.00139674
-4.96985e-05
7.78438e-05
0.000140376
-8.07436e-05
7.46697e-05
0.000164944
7.12271e-05
0.000190282
6.75226e-05
0.000216495
6.3564e-05
0.000243737
5.93614e-05
0.000272091
5.49254e-05
0.000301785
5.0269e-05
0.000332973
4.54069e-05
0.000365839
4.03556e-05
0.000400574
3.51338e-05
0.000437375
2.9762e-05
0.000476436
2.42628e-05
0.000517947
1.86603e-05
0.000562138
1.29821e-05
0.00060902
7.25594e-06
0.000658881
1.51215e-06
0.000711785
-4.2175e-06
0.000767809
-9.89982e-06
0.000826996
-1.55002e-05
0.000889319
-2.09833e-05
0.000954722
-2.6313e-05
0.00102308
-3.14529e-05
0.00109423
-3.63669e-05
0.0011679
-4.10196e-05