/*--------------------------------*- C++ -*----------------------------------*\
  =========                 |
  \\      /  F ield         | OpenFOAM: The Open Source CFD Toolbox
   \\    /   O peration     | Website:  https://openfoam.org
    \\  /    A nd           | Version:  10
     \\/     M anipulation  |
\*---------------------------------------------------------------------------*/
FoamFile
{
    format      ascii;
    class       volVectorField;
    location    "1000";
    object      U;
}
// * * * * * * * * * * * * * * * * * * * * * * * * * * * * * * * * * * * * * //

dimensions      [0 1 -1 0 0 0 0];

internalField   nonuniform List<vector> 
15350
(
(-0.00278209 0.0106734 0)
(-0.00155241 0.0102232 0)
(-0.000319401 0.00984792 0)
(0.00100659 0.00945297 0)
(0.00245605 0.00903336 0)
(0.00404468 0.00859127 0)
(0.00578879 0.00812551 0)
(0.00770605 0.00763555 0)
(0.00981564 0.00712099 0)
(0.012138 0.00658149 0)
(0.0146943 0.00601719 0)
(0.0175068 0.00542766 0)
(0.0205982 0.00481306 0)
(0.0239914 0.00417347 0)
(0.0277092 0.00350933 0)
(0.0317735 0.00282141 0)
(0.0362055 0.00211062 0)
(0.0410239 0.00137863 0)
(0.0462453 0.000627552 0)
(0.0518826 -0.000140022 0)
(0.0579443 -0.000920644 0)
(0.0644337 -0.00171021 0)
(0.0713477 -0.00250392 0)
(0.0786762 -0.00329601 0)
(0.0864008 -0.00408 0)
(0.0944946 -0.00484672 0)
(0.102921 -0.005583 0)
(-0.00253273 0.0105652 0)
(-0.00138377 0.0101951 0)
(-0.000144004 0.00982843 0)
(0.00120198 0.0094353 0)
(0.00267202 0.0090143 0)
(0.00428108 0.00856826 0)
(0.00604547 0.00809765 0)
(0.00798309 0.00760249 0)
(0.0101133 0.00708277 0)
(0.0124566 0.00653847 0)
(0.0150345 0.00596963 0)
(0.0178693 0.00537618 0)
(0.0209838 0.00475826 0)
(0.0244013 0.00411609 0)
(0.0281445 0.00345018 0)
(0.0322352 0.00276135 0)
(0.0366944 0.0020507 0)
(0.0415408 0.00131985 0)
(0.0467903 0.000570924 0)
(0.0524554 -0.00019337 0)
(0.0585441 -0.000969553 0)
(0.0650588 -0.00175348 0)
(0.0719956 -0.00254025 0)
(0.0793433 -0.00332401 0)
(0.0870819 -0.00409787 0)
(0.0951813 -0.0048527 0)
(0.103597 -0.00557632 0)
(-0.00218326 0.0105589 0)
(-0.00101014 0.0101955 0)
(0.000257098 0.00982143 0)
(0.0016303 0.00942273 0)
(0.00312565 0.00899748 0)
(0.00475893 0.00854697 0)
(0.00654693 0.00807167 0)
(0.00850783 0.00757176 0)
(0.010661 0.00704736 0)
(0.013027 0.0064986 0)
(0.0156272 0.00592558 0)
(0.0184839 0.00532844 0)
(0.0216198 0.00470739 0)
(0.0250579 0.00406278 0)
(0.0288208 0.00339525 0)
(0.03293 0.00270571 0)
(0.0374061 0.00199541 0)
(0.0422674 0.00126605 0)
(0.0475296 0.000519847 0)
(0.0532047 -0.000240393 0)
(0.0593 -0.00101118 0)
(0.0658175 -0.00178833 0)
(0.0727527 -0.00256691 0)
(0.0800934 -0.00334108 0)
(0.0878183 -0.00410411 0)
(0.095896 -0.004848 0)
(0.104282 -0.00556364 0)
(-0.00184039 0.0105642 0)
(-0.000645711 0.0102003 0)
(0.000644488 0.00981907 0)
(0.00204281 0.00941402 0)
(0.00356352 0.0089836 0)
(0.00522202 0.00852827 0)
(0.00703505 0.0080483 0)
(0.00902086 0.00754387 0)
(0.0111989 0.00701517 0)
(0.0135896 0.00646238 0)
(0.0162145 0.00588568 0)
(0.0190957 0.0052853 0)
(0.0222558 0.00466155 0)
(0.0257176 0.00401487 0)
(0.0295032 0.00334599 0)
(0.033634 0.00265592 0)
(0.03813 0.00194597 0)
(0.043009 0.00121794 0)
(0.0482861 0.000474119 0)
(0.0539726 -0.000282622 0)
(0.060075 -0.00104876 0)
(0.0665947 -0.00182008 0)
(0.0735261 -0.0025916 0)
(0.0808561 -0.00335753 0)
(0.0885629 -0.00411123 0)
(0.0966141 -0.00484524 0)
(0.104967 -0.00555175 0)
(-0.00149879 0.0105713 0)
(-0.00028056 0.0102047 0)
(0.00103286 0.00981765 0)
(0.00245517 0.00940666 0)
(0.00400003 0.00897084 0)
(0.0056826 0.00851047 0)
(0.00751954 0.00802575 0)
(0.00952906 0.00751684 0)
(0.0117306 0.00698396 0)
(0.0141446 0.00642733 0)
(0.0167926 0.0058472 0)
(0.0196966 0.00524387 0)
(0.0228791 0.00461774 0)
(0.0263628 0.00396934 0)
(0.0301695 0.00329946 0)
(0.0343201 0.00260919 0)
(0.0388345 0.00189993 0)
(0.0437299 0.00117352 0)
(0.0490208 0.000432298 0)
(0.054718 -0.000320813 0)
(0.0608273 -0.00108226 0)
(0.0673493 -0.00184781 0)
(0.0742778 -0.0026125 0)
(0.0815987 -0.00337057 0)
(0.0892895 -0.00411554 0)
(0.0973175 -0.00484028 0)
(0.10564 -0.00553766 0)
(-0.00115389 0.0105789 0)
(8.93619e-05 0.0102086 0)
(0.00142688 0.00981642 0)
(0.00287322 0.00939999 0)
(0.00444205 0.00895892 0)
(0.00614845 0.00849354 0)
(0.00800903 0.00800409 0)
(0.010042 0.00749077 0)
(0.0122667 0.0069538 0)
(0.0147037 0.00639347 0)
(0.0173742 0.00581007 0)
(0.0203005 0.00520398 0)
(0.0235047 0.00457568 0)
(0.0270093 0.00392575 0)
(0.0308361 0.00325509 0)
(0.0350055 0.00256485 0)
(0.039537 0.00185649 0)
(0.0444476 0.0011319 0)
(0.049751 0.000393495 0)
(0.0554575 -0.00035579 0)
(0.0615724 -0.00111237 0)
(0.0680955 -0.00187201 0)
(0.0750198 -0.00262978 0)
(0.0823309 -0.00338001 0)
(0.0900053 -0.00411645 0)
(0.0980103 -0.00483233 0)
(0.106303 -0.00552096 0)
(-0.000804529 0.0105867 0)
(0.000464154 0.0102121 0)
(0.00182621 0.00981505 0)
(0.00329667 0.00939358 0)
(0.00488936 0.00894752 0)
(0.0066194 0.00847733 0)
(0.0085034 0.00798332 0)
(0.0105595 0.00746572 0)
(0.0128071 0.00692483 0)
(0.0152667 0.00636096 0)
(0.0179595 0.00577449 0)
(0.0209075 0.00516584 0)
(0.0241329 0.00453556 0)
(0.027658 0.00388432 0)
(0.0315042 0.00321308 0)
(0.0356917 0.00252305 0)
(0.0402397 0.00181576 0)
(0.0451644 0.00109317 0)
(0.0504795 0.000357699 0)
(0.0561944 -0.000387656 0)
(0.0623138 -0.00113931 0)
(0.068837 -0.00189303 0)
(0.0757563 -0.00264394 0)
(0.0830564 -0.00338651 0)
(0.0907138 -0.00411469 0)
(0.0986953 -0.00482201 0)
(0.106959 -0.00550215 0)
(-0.000450395 0.0105939 0)
(0.000843673 0.0102149 0)
(0.00223042 0.00981328 0)
(0.00372506 0.00938708 0)
(0.00534153 0.00893633 0)
(0.00709504 0.00846157 0)
(0.0090022 0.0079632 0)
(0.0110812 0.00744153 0)
(0.0133513 0.00689691 0)
(0.0158331 0.00632971 0)
(0.0185476 0.00574035 0)
(0.0215169 0.00512935 0)
(0.0247629 0.0044973 0)
(0.0283077 0.00384495 0)
(0.0321726 0.00317332 0)
(0.0363775 0.00248369 0)
(0.040941 0.00177764 0)
(0.0458792 0.00105718 0)
(0.0512049 0.000324769 0)
(0.0569273 -0.000416575 0)
(0.0630504 -0.00116326 0)
(0.0695727 -0.0019111 0)
(0.0764861 -0.00265525 0)
(0.0837748 -0.00339034 0)
(0.0914146 -0.0041105 0)
(0.0993725 -0.00480952 0)
(0.107606 -0.00548132 0)
(-9.17382e-05 0.0106004 0)
(0.00122762 0.010217 0)
(0.00263909 0.0098109 0)
(0.00415791 0.00938025 0)
(0.0057981 0.00892509 0)
(0.00757492 0.00844603 0)
(0.00950501 0.00794356 0)
(0.0116065 0.00741804 0)
(0.0138989 0.0068699 0)
(0.0164023 0.00629957 0)
(0.0191382 0.00570755 0)
(0.0221281 0.00509438 0)
(0.0253941 0.00446076 0)
(0.028958 0.0038075 0)
(0.0328408 0.00313566 0)
(0.0370622 0.0024466 0)
(0.0416405 0.00174194 0)
(0.0465911 0.00102374 0)
(0.0519267 0.000294491 0)
(0.0576556 -0.000442774 0)
(0.0637815 -0.00118447 0)
(0.0703021 -0.00192644 0)
(0.0772089 -0.00266394 0)
(0.0844855 -0.00339169 0)
(0.0921074 -0.00410402 0)
(0.100042 -0.00479494 0)
(0.108246 -0.00545855 0)
(0.000271304 0.0106055 0)
(0.00161584 0.010218 0)
(0.00305202 0.0098077 0)
(0.00459498 0.00937285 0)
(0.00625881 0.00891355 0)
(0.00805879 0.00843047 0)
(0.0100116 0.00792416 0)
(0.0121354 0.00739505 0)
(0.0144496 0.00684362 0)
(0.0169744 0.0062704 0)
(0.019731 0.00567592 0)
(0.0227411 0.00506081 0)
(0.0260264 0.00442582 0)
(0.0296088 0.00377182 0)
(0.0335088 0.00309994 0)
(0.037746 0.00241161 0)
(0.0423381 0.00170848 0)
(0.0473004 0.000992658 0)
(0.0526449 0.000266664 0)
(0.0583795 -0.000466468 0)
(0.0645072 -0.00120316 0)
(0.0710254 -0.0019393 0)
(0.0779248 -0.00267023 0)
(0.0851888 -0.00339078 0)
(0.0927925 -0.00409544 0)
(0.100703 -0.0047784 0)
(0.108877 -0.00543396 0)
(0.00063848 0.0106091 0)
(0.00200811 0.0102178 0)
(0.00346896 0.00980343 0)
(0.00503602 0.00936464 0)
(0.00672339 0.00890148 0)
(0.00854639 0.00841466 0)
(0.0105217 0.00790478 0)
(0.0126675 0.00737234 0)
(0.0150032 0.00681789 0)
(0.0175489 0.006242 0)
(0.0203259 0.00564529 0)
(0.0233556 0.00502845 0)
(0.0266597 0.00439229 0)
(0.0302599 0.00373775 0)
(0.0341764 0.00306601 0)
(0.0384285 0.00237856 0)
(0.0430338 0.0016771 0)
(0.0480069 0.000963758 0)
(0.0533594 0.000241095 0)
(0.0590988 -0.000487858 0)
(0.0652276 -0.00121955 0)
(0.0717426 -0.00194989 0)
(0.0786341 -0.00267431 0)
(0.0858849 -0.00338777 0)
(0.09347 -0.00408491 0)
(0.101356 -0.00476006 0)
(0.109501 -0.00540768 0)
(0.0010095 0.0106108 0)
(0.00240419 0.0102159 0)
(0.00388966 0.00979781 0)
(0.00548075 0.00935537 0)
(0.00719156 0.00888863 0)
(0.00903744 0.00839835 0)
(0.0110351 0.00788518 0)
(0.0132026 0.00734969 0)
(0.0155595 0.00679247 0)
(0.0181258 0.00621417 0)
(0.0209226 0.00561547 0)
(0.0239714 0.00499712 0)
(0.0272938 0.00436 0)
(0.030911 0.00370511 0)
(0.0348434 0.00303369 0)
(0.0391098 0.00234726 0)
(0.0437273 0.00164759 0)
(0.0487104 0.000936845 0)
(0.0540702 0.000217586 0)
(0.0598137 -0.000507146 0)
(0.0659428 -0.00123382 0)
(0.0724538 -0.0019584 0)
(0.0793367 -0.00267639 0)
(0.0865738 -0.00338287 0)
(0.09414 -0.00407259 0)
(0.102002 -0.00474006 0)
(0.110117 -0.00537984 0)
(0.00138409 0.0106102 0)
(0.00280379 0.010212 0)
(0.00431383 0.00979055 0)
(0.00592888 0.00934473 0)
(0.00766305 0.00887472 0)
(0.00953166 0.00838128 0)
(0.0115514 0.00786512 0)
(0.0137405 0.00732685 0)
(0.0161181 0.00676715 0)
(0.0187046 0.0061867 0)
(0.0215209 0.00558625 0)
(0.0245884 0.00496662 0)
(0.0279284 0.00432875 0)
(0.0315621 0.0036737 0)
(0.0355097 0.00300276 0)
(0.0397896 0.00231752 0)
(0.0444187 0.00161978 0)
(0.049411 0.000911721 0)
(0.0547773 0.000195939 0)
(0.060524 -0.000524531 0)
(0.0666526 -0.00124618 0)
(0.0731591 -0.00196503 0)
(0.0800327 -0.00267665 0)
(0.0872558 -0.00337623 0)
(0.0948026 -0.00405864 0)
(0.10264 -0.00471852 0)
(0.110725 -0.00535057 0)
(0.00176191 0.010607 0)
(0.0032066 0.0102059 0)
(0.00474118 0.00978133 0)
(0.00638013 0.00933245 0)
(0.00813755 0.00885946 0)
(0.0100287 0.00836317 0)
(0.0120704 0.00784432 0)
(0.0142808 0.00730358 0)
(0.016679 0.00674166 0)
(0.0192853 0.00615933 0)
(0.0221206 0.00555739 0)
(0.0252062 0.00493673 0)
(0.0285633 0.00429833 0)
(0.032213 0.00364331 0)
(0.036175 0.00297304 0)
(0.0404678 0.00228914 0)
(0.0451077 0.00159345 0)
(0.0501085 0.000888186 0)
(0.0554805 0.000175955 0)
(0.0612297 -0.000540211 0)
(0.0673572 -0.00125683 0)
(0.0738584 -0.00196997 0)
(0.0807223 -0.00267527 0)
(0.0879308 -0.00336801 0)
(0.095458 -0.0040432 0)
(0.10327 -0.00469559 0)
(0.111326 -0.00532 0)
(0.00214262 0.0106008 0)
(0.00361231 0.0101972 0)
(0.00517139 0.0097698 0)
(0.00683418 0.00931819 0)
(0.00861475 0.00884256 0)
(0.0105284 0.00834374 0)
(0.0125918 0.00782251 0)
(0.0148232 0.00727959 0)
(0.0172417 0.00671577 0)
(0.0198675 0.00613184 0)
(0.0227214 0.00552867 0)
(0.0258247 0.0049072 0)
(0.0291984 0.0042685 0)
(0.0328634 0.00361373 0)
(0.0368393 0.00294431 0)
(0.0411442 0.00226191 0)
(0.0457943 0.0015684 0)
(0.0508029 0.000866037 0)
(0.0561798 0.000157433 0)
(0.0619308 -0.000554383 0)
(0.0680565 -0.00126595 0)
(0.0745519 -0.00197339 0)
(0.0814055 -0.00267242 0)
(0.0885989 -0.00335839 0)
(0.0961062 -0.00402643 0)
(0.103894 -0.0046714 0)
(0.111919 -0.00528825 0)
(0.0025259 0.0105912 0)
(0.00402058 0.0101854 0)
(0.00560413 0.00975562 0)
(0.0072907 0.00930163 0)
(0.00909433 0.00882369 0)
(0.0110303 0.00832267 0)
(0.0131153 0.00779939 0)
(0.0153675 0.00725462 0)
(0.017806 0.00668918 0)
(0.0204509 0.00610394 0)
(0.0233231 0.00549982 0)
(0.0264436 0.00487781 0)
(0.0298333 0.00423904 0)
(0.0335132 0.00358473 0)
(0.0375024 0.00291635 0)
(0.0418188 0.0022356 0)
(0.0464783 0.00154442 0)
(0.051494 0.000845066 0)
(0.0568752 0.000140171 0)
(0.0626273 -0.000567243 0)
(0.0687505 -0.00127374 0)
(0.0752394 -0.00197549 0)
(0.0820823 -0.00266826 0)
(0.0892603 -0.00334752 0)
(0.0967473 -0.00400847 0)
(0.104509 -0.00464609 0)
(0.112505 -0.00525546 0)
(0.00291121 0.0105779 0)
(0.00443085 0.0101703 0)
(0.00603885 0.00973843 0)
(0.00774914 0.00928241 0)
(0.00957574 0.00880253 0)
(0.0115339 0.00829966 0)
(0.0136403 0.00777467 0)
(0.0159131 0.00722837 0)
(0.0183713 0.00666164 0)
(0.0210351 0.00607539 0)
(0.0239251 0.0054706 0)
(0.0270623 0.00484832 0)
(0.0304677 0.00420972 0)
(0.0341618 0.00355608 0)
(0.0381637 0.00288893 0)
(0.042491 0.00221002 0)
(0.0471594 0.0015213 0)
(0.0521814 0.000825075 0)
(0.0575663 0.000123974 0)
(0.0633188 -0.000578983 0)
(0.069439 -0.00128038 0)
(0.0759208 -0.00197643 0)
(0.0827524 -0.00266298 0)
(0.0899146 -0.00333556 0)
(0.097381 -0.00398947 0)
(0.105118 -0.00461981 0)
(0.113083 -0.00522175 0)
(0.00329829 0.0105604 0)
(0.00484293 0.0101514 0)
(0.00647537 0.00971786 0)
(0.00820934 0.0092602 0)
(0.0100588 0.00877873 0)
(0.0120391 0.00827437 0)
(0.0141668 0.00774802 0)
(0.0164599 0.00720054 0)
(0.0189376 0.00663284 0)
(0.0216199 0.00604589 0)
(0.0245274 0.00544072 0)
(0.0276811 0.00481844 0)
(0.0311016 0.00418026 0)
(0.0348094 0.00352754 0)
(0.0388235 0.00286182 0)
(0.0431611 0.00218492 0)
(0.0478376 0.00149882 0)
(0.0528654 0.00080584 0)
(0.0582532 0.000108628 0)
(0.0640056 -0.000589804 0)
(0.0701221 -0.00128607 0)
(0.0765964 -0.00197641 0)
(0.0834162 -0.00265674 0)
(0.0905621 -0.00332266 0)
(0.0980078 -0.00396958 0)
(0.105719 -0.00459268 0)
(0.113654 -0.00518724 0)
(0.00368697 0.0105383 0)
(0.00525665 0.0101283 0)
(0.00691352 0.00969352 0)
(0.00867114 0.00923459 0)
(0.0105435 0.00875193 0)
(0.0125457 0.00824646 0)
(0.0146945 0.00771911 0)
(0.0170078 0.00717079 0)
(0.0195048 0.00660246 0)
(0.0222054 0.00601514 0)
(0.0251301 0.00540989 0)
(0.0282997 0.00478789 0)
(0.031735 0.00415041 0)
(0.035456 0.00349883 0)
(0.0394817 0.00283477 0)
(0.0438291 0.00216006 0)
(0.0485132 0.00147674 0)
(0.0535461 0.000787139 0)
(0.0589364 9.39214e-05 0)
(0.064688 -0.000599908 0)
(0.0708002 -0.00129098 0)
(0.0772664 -0.00197559 0)
(0.084074 -0.00264969 0)
(0.0912033 -0.00330897 0)
(0.0986278 -0.00394892 0)
(0.106313 -0.00456481 0)
(0.114218 -0.00515204 0)
(0.00407672 0.0105113 0)
(0.00567142 0.0101007 0)
(0.00735271 0.00966501 0)
(0.00913396 0.00920523 0)
(0.0110291 0.00872177 0)
(0.0130532 0.00821557 0)
(0.015223 0.00768761 0)
(0.0175563 0.00713882 0)
(0.0200723 0.00657022 0)
(0.0227909 0.00598285 0)
(0.0257325 0.00537785 0)
(0.0289178 0.00475642 0)
(0.0323673 0.0041199 0)
(0.0361012 0.00346972 0)
(0.040138 0.00280753 0)
(0.0444945 0.00213522 0)
(0.0491857 0.00145484 0)
(0.0542232 0.000768766 0)
(0.0596152 7.96558e-05 0)
(0.0653655 -0.000609485 0)
(0.0714729 -0.00129531 0)
(0.0779305 -0.00197414 0)
(0.0847254 -0.00264201 0)
(0.0918378 -0.00329465 0)
(0.0992409 -0.00392764 0)
(0.106901 -0.00453636 0)
(0.114775 -0.00511627 0)
(0.00446705 0.0104789 0)
(0.00608682 0.0100681 0)
(0.00779254 0.00963196 0)
(0.00959738 0.00917174 0)
(0.0115152 0.00868789 0)
(0.0135612 0.00818136 0)
(0.0157518 0.00765318 0)
(0.018105 0.0071043 0)
(0.0206399 0.00653578 0)
(0.0233762 0.00594872 0)
(0.0263343 0.00534429 0)
(0.0295349 0.00472375 0)
(0.0329984 0.00408848 0)
(0.0367446 0.00343994 0)
(0.040792 0.00277987 0)
(0.0451573 0.00211016 0)
(0.0498549 0.00143291 0)
(0.0548964 0.000750503 0)
(0.0602897 6.56236e-05 0)
(0.0660381 -0.000618732 0)
(0.0721401 -0.00129924 0)
(0.0785887 -0.00197225 0)
(0.0853706 -0.00263385 0)
(0.0924657 -0.00327985 0)
(0.0998471 -0.00390588 0)
(0.107481 -0.00450744 0)
(0.115325 -0.00508007 0)
(0.0048576 0.0104407 0)
(0.00650245 0.01003 0)
(0.00823259 0.00959396 0)
(0.010061 0.00913373 0)
(0.0120015 0.00864991 0)
(0.0140692 0.00814348 0)
(0.0162805 0.00761547 0)
(0.0186535 0.0070669 0)
(0.021207 0.00649884 0)
(0.0239608 0.00591245 0)
(0.0269353 0.00530893 0)
(0.0301509 0.00468959 0)
(0.0336279 0.00405586 0)
(0.0373861 0.00340925 0)
(0.0414437 0.00275153 0)
(0.0458171 0.00208464 0)
(0.0505207 0.0014107 0)
(0.0555657 0.000732132 0)
(0.0609597 5.16171e-05 0)
(0.0667057 -0.000627847 0)
(0.0728019 -0.00130295 0)
(0.079241 -0.00197009 0)
(0.0860093 -0.00262538 0)
(0.0930868 -0.00326471 0)
(0.100446 -0.00388379 0)
(0.108054 -0.00447819 0)
(0.115867 -0.00504355 0)
(0.00524792 0.0103963 0)
(0.00691785 0.00998623 0)
(0.00867242 0.0095506 0)
(0.0105244 0.0090908 0)
(0.0124875 0.00860745 0)
(0.0145769 0.00810155 0)
(0.0168089 0.00757414 0)
(0.0192014 0.00702627 0)
(0.0217734 0.00645907 0)
(0.0245446 0.00587371 0)
(0.027535 0.00527146 0)
(0.0307653 0.00465365 0)
(0.0342555 0.00402177 0)
(0.0380253 0.00337737 0)
(0.0420927 0.00272225 0)
(0.0464738 0.00205841 0)
(0.051183 0.00138799 0)
(0.0562309 0.000713433 0)
(0.061625 3.74287e-05 0)
(0.0673681 -0.000637025 0)
(0.0734581 -0.00130664 0)
(0.0798872 -0.00196783 0)
(0.0866417 -0.00261677 0)
(0.0937013 -0.00324939 0)
(0.101039 -0.0038615 0)
(0.108619 -0.00444873 0)
(0.116403 -0.00500682 0)
(0.00563754 0.0103452 0)
(0.00733259 0.00993617 0)
(0.0091116 0.00950147 0)
(0.0109871 0.00904257 0)
(0.0129728 0.00856014 0)
(0.0150838 0.0080552 0)
(0.0173364 0.00752882 0)
(0.0197484 0.00698208 0)
(0.0223387 0.00641613 0)
(0.025127 0.0058322 0)
(0.0281333 0.00523157 0)
(0.0313779 0.00461564 0)
(0.034881 0.00398592 0)
(0.038662 0.00334403 0)
(0.0427388 0.00269179 0)
(0.0471272 0.00203124 0)
(0.0518414 0.00136455 0)
(0.0568919 0.000694187 0)
(0.0622857 2.28504e-05 0)
(0.0680254 -0.000646462 0)
(0.0741086 -0.00131047 0)
(0.0805274 -0.00196563 0)
(0.0872677 -0.00260816 0)
(0.094309 -0.00323404 0)
(0.101624 -0.00383914 0)
(0.109178 -0.00441919 0)
(0.116931 -0.00496999 0)
(0.006026 0.010287 0)
(0.00774621 0.00987947 0)
(0.00954966 0.00944617 0)
(0.0114487 0.00898863 0)
(0.013457 0.00850759 0)
(0.0155895 0.00800406 0)
(0.0178626 0.00747916 0)
(0.020294 0.00693398 0)
(0.0229025 0.0063697 0)
(0.0257077 0.00578758 0)
(0.0287296 0.00518896 0)
(0.0319884 0.00457527 0)
(0.0355041 0.00394805 0)
(0.0392959 0.00330897 0)
(0.0433817 0.00265989 0)
(0.0477771 0.00200288 0)
(0.0524958 0.00134015 0)
(0.0575484 0.000674174 0)
(0.0629414 7.67526e-06 0)
(0.0686773 -0.000656352 0)
(0.0747534 -0.00131464 0)
(0.0811614 -0.00196368 0)
(0.0878872 -0.00259971 0)
(0.09491 -0.0032188 0)
(0.102202 -0.00381685 0)
(0.10973 -0.00438968 0)
(0.117452 -0.00493318 0)
(0.00641284 0.0102213 0)
(0.00815823 0.00981568 0)
(0.00998613 0.00938428 0)
(0.0119087 0.00892859 0)
(0.0139395 0.0084494 0)
(0.0160936 0.00794776 0)
(0.0183871 0.00742479 0)
(0.0208378 0.00688161 0)
(0.0234644 0.00631944 0)
(0.0262864 0.00573955 0)
(0.0293237 0.00514333 0)
(0.0325964 0.00453224 0)
(0.0361244 0.00390787 0)
(0.0399268 0.00327191 0)
(0.0440212 0.00262629 0)
(0.0484231 0.00197309 0)
(0.0531461 0.00131455 0)
(0.0582002 0.000653175 0)
(0.0635921 -8.30295e-06 0)
(0.0693238 -0.000666889 0)
(0.0753923 -0.00131933 0)
(0.0817892 -0.00196214 0)
(0.0885001 -0.00259159 0)
(0.0955041 -0.00320381 0)
(0.102774 -0.00379476 0)
(0.110275 -0.00436033 0)
(0.117965 -0.0048965 0)
(0.00679762 0.0101476 0)
(0.00856818 0.00974438 0)
(0.0104206 0.00931539 0)
(0.0123666 0.00886204 0)
(0.01442 0.0083852 0)
(0.0165955 0.00788592 0)
(0.0189094 0.00736535 0)
(0.0213794 0.00682463 0)
(0.0240239 0.006265 0)
(0.0268625 0.00568777 0)
(0.0299151 0.00509435 0)
(0.0332015 0.00448625 0)
(0.0367416 0.00386508 0)
(0.0405543 0.00323259 0)
(0.044657 0.00259073 0)
(0.0490651 0.00194161 0)
(0.0537919 0.00128752 0)
(0.0588473 0.000630972 0)
(0.0642376 -2.52889e-05 0)
(0.0699646 -0.000678265 0)
(0.0760252 -0.00132471 0)
(0.0824106 -0.00196116 0)
(0.0891064 -0.00258394 0)
(0.0960914 -0.00318921 0)
(0.103338 -0.003773 0)
(0.110812 -0.00433126 0)
(0.118472 -0.00486004 0)
(0.00717964 0.0100656 0)
(0.00897539 0.00966518 0)
(0.0108522 0.00923911 0)
(0.0128218 0.00878861 0)
(0.0148977 0.00831462 0)
(0.0170947 0.0078182 0)
(0.0194289 0.00730052 0)
(0.021918 0.00676273 0)
(0.0245804 0.00620609 0)
(0.0274356 0.00563196 0)
(0.0305032 0.00504175 0)
(0.0338032 0.00443703 0)
(0.0373551 0.00381944 0)
(0.0411778 0.00319076 0)
(0.0452885 0.00255297 0)
(0.0497025 0.00190823 0)
(0.0544327 0.00125885 0)
(0.059489 0.00060736 0)
(0.0648774 -4.34771e-05 0)
(0.0705994 -0.000690662 0)
(0.0766517 -0.00133096 0)
(0.0830253 -0.00196093 0)
(0.0897056 -0.00257692 0)
(0.0966714 -0.00317514 0)
(0.103895 -0.00375169 0)
(0.111342 -0.00430258 0)
(0.118971 -0.00482393 0)
(0.00755852 0.00997485 0)
(0.00937951 0.00957764 0)
(0.0112808 0.00915503 0)
(0.013274 0.00870789 0)
(0.0153724 0.00823725 0)
(0.0175908 0.0077442 0)
(0.0199453 0.00722989 0)
(0.0224535 0.00669551 0)
(0.0251337 0.00614234 0)
(0.0280053 0.00557175 0)
(0.0310878 0.0049852 0)
(0.0344012 0.00438426 0)
(0.0379647 0.00377064 0)
(0.0417972 0.00314612 0)
(0.0459157 0.00251274 0)
(0.0503352 0.00187269 0)
(0.0550686 0.0012283 0)
(0.0601255 0.000582116 0)
(0.0655116 -6.30755e-05 0)
(0.0712282 -0.000704274 0)
(0.0772719 -0.00133826 0)
(0.0836335 -0.00196159 0)
(0.0902981 -0.00257067 0)
(0.0972443 -0.00316174 0)
(0.104445 -0.00373095 0)
(0.111864 -0.00427439 0)
(0.119463 -0.00478825 0)
(0.00793397 0.00987483 0)
(0.00978024 0.00948129 0)
(0.0117061 0.00906267 0)
(0.0137228 0.00861943 0)
(0.0158437 0.00815267 0)
(0.0180836 0.0076635 0)
(0.0204584 0.00715308 0)
(0.0229856 0.00662261 0)
(0.0256836 0.00607339 0)
(0.0285715 0.00550681 0)
(0.0316689 0.00492435 0)
(0.0349955 0.00432763 0)
(0.0385705 0.00371836 0)
(0.0424126 0.0030984 0)
(0.0465386 0.00246978 0)
(0.0509634 0.00183473 0)
(0.0556997 0.00119562 0)
(0.0607567 0.000555014 0)
(0.0661402 -8.42917e-05 0)
(0.0718512 -0.000719291 0)
(0.077886 -0.00134676 0)
(0.0842352 -0.0019633 0)
(0.0908838 -0.00256533 0)
(0.0978104 -0.00314912 0)
(0.104987 -0.0037109 0)
(0.11238 -0.00424679 0)
(0.119948 -0.00475307 0)
(0.00830533 0.00976517 0)
(0.0101769 0.00937575 0)
(0.0121272 0.00896167 0)
(0.0141675 0.00852287 0)
(0.016311 0.00806052 0)
(0.0185723 0.00757577 0)
(0.0209674 0.00706976 0)
(0.0235137 0.00654371 0)
(0.0262293 0.00599893 0)
(0.0291335 0.00543684 0)
(0.0322457 0.00485893 0)
(0.0355854 0.00426686 0)
(0.0391717 0.00366237 0)
(0.0430232 0.00304734 0)
(0.0471565 0.00242384 0)
(0.0515863 0.00179414 0)
(0.0563252 0.00116061 0)
(0.0613822 0.000525858 0)
(0.0667628 -0.000107311 0)
(0.0724679 -0.000735886 0)
(0.0784934 -0.00135665 0)
(0.08483 -0.00196622 0)
(0.0914624 -0.00256103 0)
(0.0983692 -0.00313742 0)
(0.105522 -0.00369164 0)
(0.112888 -0.00421988 0)
(0.120425 -0.00471849 0)
(0.00867204 0.00964545 0)
(0.0105689 0.00926061 0)
(0.0125437 0.00885163 0)
(0.0146076 0.00841782 0)
(0.0167736 0.00796044 0)
(0.0190564 0.00748064 0)
(0.0214718 0.00697957 0)
(0.0240371 0.00645846 0)
(0.0267705 0.00591864 0)
(0.0296909 0.00536152 0)
(0.0328177 0.00478864 0)
(0.0361704 0.00420167 0)
(0.0397679 0.00360238 0)
(0.0436286 0.00299268 0)
(0.0477691 0.00237468 0)
(0.0522038 0.00175067 0)
(0.056945 0.00112305 0)
(0.0620017 0.000494443 0)
(0.0673791 -0.000132323 0)
(0.0730779 -0.000754235 0)
(0.079094 -0.00136808 0)
(0.0854178 -0.00197049 0)
(0.0920338 -0.00255792 0)
(0.0989205 -0.00312675 0)
(0.10605 -0.00367328 0)
(0.113388 -0.00419376 0)
(0.120894 -0.00468459 0)
(0.00903354 0.0095153 0)
(0.0109557 0.00913546 0)
(0.0129551 0.00873216 0)
(0.0150425 0.00830391 0)
(0.0172311 0.00785205 0)
(0.0195354 0.00737775 0)
(0.0219711 0.00688218 0)
(0.0245554 0.00636654 0)
(0.0273064 0.00583218 0)
(0.0302431 0.00528054 0)
(0.0333846 0.00471318 0)
(0.0367502 0.00413177 0)
(0.0403588 0.00353812 0)
(0.0442286 0.00293417 0)
(0.048376 0.00232206 0)
(0.0528153 0.0017041 0)
(0.0575587 0.00108272 0)
(0.0626149 0.000460571 0)
(0.0679889 -0.000159513 0)
(0.0736812 -0.00077451 0)
(0.0796876 -0.00138121 0)
(0.0859983 -0.00197625 0)
(0.0925977 -0.00255613 0)
(0.0994643 -0.00311724 0)
(0.10657 -0.00365594 0)
(0.113881 -0.00416853 0)
(0.121356 -0.00465146 0)
(0.00938929 0.00937431 0)
(0.0113367 0.00899991 0)
(0.0133607 0.00860288 0)
(0.0154718 0.00818076 0)
(0.017683 0.00773498 0)
(0.0200087 0.00726675 0)
(0.0224647 0.00677722 0)
(0.0250681 0.0062676 0)
(0.0278368 0.00573924 0)
(0.0307896 0.0051936 0)
(0.0339457 0.00463225 0)
(0.0373242 0.00405688 0)
(0.0409438 0.00346933 0)
(0.0448226 0.00287156 0)
(0.0489769 0.00226573 0)
(0.0534207 0.0016542 0)
(0.058166 0.00103942 0)
(0.0632215 0.000424046 0)
(0.0685918 -0.000189062 0)
(0.0742775 -0.000796875 0)
(0.080274 -0.00139619 0)
(0.0865714 -0.00198364 0)
(0.0931541 -0.00255577 0)
(0.1 -0.00310898 0)
(0.107082 -0.00363969 0)
(0.114366 -0.00414425 0)
(0.12181 -0.00461917 0)
(0.00973876 0.0092221 0)
(0.0117115 0.00885358 0)
(0.01376 0.0084634 0)
(0.0158947 0.00804798 0)
(0.0181285 0.00760888 0)
(0.0204758 0.00714729 0)
(0.0229522 0.00666437 0)
(0.0255746 0.00616133 0)
(0.028361 0.00563952 0)
(0.03133 0.0051004 0)
(0.0345007 0.00454556 0)
(0.037892 0.00397672 0)
(0.0415226 0.00339574 0)
(0.0454104 0.00280459 0)
(0.0495713 0.00220548 0)
(0.0540195 0.00160077 0)
(0.0587666 0.000992937 0)
(0.0638211 0.00038468 0)
(0.0691877 -0.000221142 0)
(0.0748665 -0.000821488 0)
(0.0808529 -0.00141316 0)
(0.0871369 -0.0019928 0)
(0.0937027 -0.00255696 0)
(0.100529 -0.00310209 0)
(0.107587 -0.00362464 0)
(0.114843 -0.00412101 0)
(0.122257 -0.00458776 0)
(0.0100814 0.00905829 0)
(0.0120794 0.00869606 0)
(0.0141525 0.00831335 0)
(0.0163108 0.00790523 0)
(0.0185673 0.00747338 0)
(0.0209361 0.00701902 0)
(0.0234328 0.00654329 0)
(0.0260744 0.00604739 0)
(0.0288785 0.00553269 0)
(0.0318638 0.00500064 0)
(0.0350491 0.00445285 0)
(0.0384532 0.00389104 0)
(0.0420947 0.0033171 0)
(0.0459913 0.00273303 0)
(0.0501589 0.00214106 0)
(0.0546113 0.00154358 0)
(0.0593601 0.000943083 0)
(0.0644136 0.000342291 0)
(0.0697762 -0.000255921 0)
(0.075448 -0.000848503 0)
(0.0814241 -0.00143225 0)
(0.0876945 -0.00200383 0)
(0.0942433 -0.0025598 0)
(0.101049 -0.00309665 0)
(0.108083 -0.00361086 0)
(0.115312 -0.00409887 0)
(0.122695 -0.00455731 0)
(0.0104166 0.00888252 0)
(0.0124399 0.008527 0)
(0.0145375 0.00815236 0)
(0.0167195 0.00775216 0)
(0.0189986 0.00732815 0)
(0.0213891 0.00688162 0)
(0.0239062 0.00641366 0)
(0.0265669 0.0059255 0)
(0.0293888 0.00541847 0)
(0.0323903 0.00489404 0)
(0.0355902 0.00435382 0)
(0.0390072 0.00379957 0)
(0.0426597 0.00323317 0)
(0.0465651 0.00265665 0)
(0.0507392 0.00207227 0)
(0.0551958 0.00148243 0)
(0.0599462 0.000889664 0)
(0.0649985 0.000296705 0)
(0.070357 -0.000293557 0)
(0.0760216 -0.000878063 0)
(0.0819873 -0.00145361 0)
(0.088244 -0.00201686 0)
(0.0947757 -0.00256441 0)
(0.101561 -0.00309275 0)
(0.108571 -0.00359842 0)
(0.115772 -0.00407789 0)
(0.123125 -0.00452785 0)
(0.0107438 0.00869444 0)
(0.0127924 0.00834605 0)
(0.0149146 0.0079801 0)
(0.0171202 0.00758841 0)
(0.019422 0.00717286 0)
(0.021834 0.00673475 0)
(0.0243717 0.00627518 0)
(0.0270516 0.00579534 0)
(0.0298913 0.00529656 0)
(0.0329092 0.00478032 0)
(0.0361237 0.00424823 0)
(0.0395536 0.00370205 0)
(0.043217 0.0031437 0)
(0.0471312 0.00257522 0)
(0.0513118 0.00199889 0)
(0.0557725 0.00141713 0)
(0.0605244 0.000832501 0)
(0.0655754 0.000247755 0)
(0.0709297 -0.000334203 0)
(0.076587 -0.000910304 0)
(0.0825423 -0.00147734 0)
(0.0887852 -0.002032 0)
(0.0952997 -0.00257086 0)
(0.102064 -0.00309048 0)
(0.10905 -0.00358738 0)
(0.116224 -0.00405813 0)
(0.123547 -0.00449942 0)
(0.0110623 0.00849379 0)
(0.0131361 0.00815291 0)
(0.0152828 0.00779629 0)
(0.017512 0.00741374 0)
(0.0198365 0.00700726 0)
(0.0222703 0.0065782 0)
(0.0248284 0.00612762 0)
(0.0275276 0.00565669 0)
(0.0303852 0.00516675 0)
(0.0334195 0.00465927 0)
(0.0366488 0.00413586 0)
(0.0400915 0.0035983 0)
(0.0437658 0.00304851 0)
(0.0476889 0.00248856 0)
(0.0518761 0.00192075 0)
(0.0563408 0.00134751 0)
(0.0610941 0.000771446 0)
(0.0661438 0.000195307 0)
(0.0714938 -0.00037798 0)
(0.0771438 -0.000945337 0)
(0.0830885 -0.00150356 0)
(0.0893175 -0.00204932 0)
(0.0958148 -0.00257924 0)
(0.102559 -0.00308988 0)
(0.109521 -0.00357782 0)
(0.116668 -0.00403963 0)
(0.123959 -0.00447208 0)
(0.0113717 0.00828021 0)
(0.0134707 0.00794722 0)
(0.0156418 0.00760056 0)
(0.0178947 0.00722778 0)
(0.0202419 0.00683099 0)
(0.0226973 0.00641159 0)
(0.0252761 0.00597062 0)
(0.0279946 0.00550922 0)
(0.0308702 0.00502872 0)
(0.0339209 0.00453058 0)
(0.037165 0.00401643 0)
(0.0406208 0.00348803 0)
(0.0443061 0.00294734 0)
(0.048238 0.00239644 0)
(0.0524317 0.00183763 0)
(0.0569005 0.00127338 0)
(0.0616552 0.000706312 0)
(0.0667035 0.000139192 0)
(0.0720492 -0.000425037 0)
(0.0776917 -0.000983291 0)
(0.0836258 -0.00153236 0)
(0.0898409 -0.00206893 0)
(0.096321 -0.00258962 0)
(0.103044 -0.00309103 0)
(0.109982 -0.00356975 0)
(0.117102 -0.00402241 0)
(0.124364 -0.00444582 0)
(0.0116714 0.00805327 0)
(0.0137955 0.00772854 0)
(0.0159911 0.0073925 0)
(0.0182676 0.00703012 0)
(0.0206376 0.00664366 0)
(0.0231148 0.00623458 0)
(0.0257143 0.00580384 0)
(0.0284522 0.0053526 0)
(0.031346 0.00488215 0)
(0.0344132 0.00439396 0)
(0.0376722 0.00388964 0)
(0.041141 0.00337098 0)
(0.0448374 0.00283993 0)
(0.0487782 0.0022986 0)
(0.0529785 0.0017493 0)
(0.0574514 0.00119453 0)
(0.0622075 0.000636911 0)
(0.0672544 7.92436e-05 0)
(0.0725957 -0.000475522 0)
(0.0782308 -0.00102429 0)
(0.0841542 -0.00156385 0)
(0.0903554 -0.0020909 0)
(0.0968182 -0.00260207 0)
(0.103521 -0.00309396 0)
(0.110435 -0.00356322 0)
(0.117528 -0.0040065 0)
(0.124759 -0.00442064 0)
(0.0119609 0.00781278 0)
(0.01411 0.00749666 0)
(0.0163299 0.0071719 0)
(0.0186301 0.00682058 0)
(0.0210229 0.0064451 0)
(0.0235219 0.00604696 0)
(0.0261421 0.00562711 0)
(0.0288996 0.00518664 0)
(0.0318115 0.00472686 0)
(0.0348955 0.00424922 0)
(0.0381695 0.00375533 0)
(0.0416515 0.00324697 0)
(0.045359 0.00272613 0)
(0.0493088 0.00219489 0)
(0.0535158 0.00165562 0)
(0.0579927 0.00111082 0)
(0.0627503 0.000563129 0)
(0.0677958 1.53591e-05 0)
(0.0731327 -0.000529522 0)
(0.0787604 -0.00106841 0)
(0.0846731 -0.0015981 0)
(0.0908603 -0.00211529 0)
(0.0973059 -0.00261662 0)
(0.103988 -0.00309872 0)
(0.110878 -0.00355825 0)
(0.117944 -0.0039919 0)
(0.125146 -0.00439655 0)
(0.0122394 0.00755849 0)
(0.0144135 0.00725131 0)
(0.0166577 0.00693852 0)
(0.0189815 0.00659891 0)
(0.0213971 0.00623507 0)
(0.023918 0.00584853 0)
(0.026559 0.0054402 0)
(0.0293362 0.00501115 0)
(0.0322664 0.00456265 0)
(0.0353672 0.00409616 0)
(0.0386563 0.00361329 0)
(0.0421516 0.00311582 0)
(0.0458704 0.00260573 0)
(0.0498293 0.00208516 0)
(0.054043 0.00155644 0)
(0.0585241 0.00102211 0)
(0.0632832 0.000484831 0)
(0.0683273 -5.25775e-05 0)
(0.0736599 -0.000587137 0)
(0.07928 -0.00111574 0)
(0.0851821 -0.00163517 0)
(0.0913555 -0.00214214 0)
(0.0977838 -0.0026333 0)
(0.104445 -0.0031053 0)
(0.111312 -0.00355483 0)
(0.118351 -0.00397861 0)
(0.125523 -0.00437355 0)
(0.0125065 0.00729018 0)
(0.0147053 0.00699226 0)