/*--------------------------------*- C++ -*----------------------------------*\
  =========                 |
  \\      /  F ield         | OpenFOAM: The Open Source CFD Toolbox
   \\    /   O peration     | Website:  https://openfoam.org
    \\  /    A nd           | Version:  11
     \\/     M anipulation  |
\*---------------------------------------------------------------------------*/
FoamFile
{
    format      ascii;
    class       volScalarField;
    location    "804";
    object      p;
}
// * * * * * * * * * * * * * * * * * * * * * * * * * * * * * * * * * * * * * //

dimensions      [0 2 -2 0 0 0 0];

internalField   nonuniform List<scalar> 
90300
(
1.33731
1.33678
1.33588
1.33623
1.33693
1.33735
1.33753
1.33758
1.33756
1.33757
1.33757
1.33756
1.33758
1.33753
1.33735
1.33693
1.33623
1.33588
1.33678
1.33731
1.3379
1.33724
1.33634
1.33685
1.33763
1.33805
1.33819
1.3382
1.33816
1.33815
1.33815
1.33816
1.3382
1.33819
1.33805
1.33763
1.33685
1.33634
1.33724
1.3379
1.33847
1.3377
1.33686
1.33756
1.33841
1.33879
1.33887
1.33885
1.33882
1.33882
1.33882
1.33882
1.33885
1.33887
1.33879
1.33841
1.33756
1.33686
1.3377
1.33847
1.33913
1.33825
1.33751
1.33837
1.33925
1.33959
1.33962
1.33957
1.33952
1.33951
1.33951
1.33952
1.33957
1.33962
1.33959
1.33925
1.33837
1.33751
1.33825
1.33913
1.33986
1.33883
1.33822
1.33926
1.34015
1.34044
1.34042
1.34034
1.34029
1.34028
1.34028
1.34029
1.34034
1.34042
1.34044
1.34015
1.33926
1.33822
1.33883
1.33986
1.3407
1.33944
1.33898
1.34019
1.34108
1.34131
1.34123
1.34114
1.34109
1.34109
1.34109
1.34109
1.34114
1.34123
1.34131
1.34108
1.34019
1.33898
1.33944
1.3407
1.34164
1.34014
1.33983
1.34113
1.34199
1.34215
1.34202
1.34192
1.34188
1.3419
1.3419
1.34188
1.34192
1.34202
1.34215
1.34199
1.34113
1.33983
1.34014
1.34164
1.3427
1.34097
1.34076
1.34205
1.34281
1.3429
1.34273
1.34263
1.34263
1.34266
1.34266
1.34263
1.34263
1.34273
1.3429
1.34281
1.34205
1.34076
1.34097
1.3427
1.34388
1.34194
1.34169
1.34288
1.3435
1.3435
1.3433
1.34321
1.34325
1.34331
1.34331
1.34325
1.34321
1.3433
1.3435
1.3435
1.34288
1.34169
1.34194
1.34388
1.34507
1.34298
1.34252
1.34348
1.3439
1.34375
1.3435
1.34343
1.3435
1.34359
1.34359
1.3435
1.34343
1.3435
1.34375
1.3439
1.34348
1.34252
1.34298
1.34507
1.34608
1.34406
1.34344
1.34418
1.34447
1.34427
1.34403
1.34401
1.34414
1.34426
1.34426
1.34414
1.34401
1.34403
1.34427
1.34447
1.34418
1.34344
1.34406
1.34608
1.34664
1.3449
1.34404
1.34422
1.34398
1.34344
1.34293
1.34266
1.3426
1.34263
1.34263
1.3426
1.34266
1.34293
1.34344
1.34398
1.34422
1.34404
1.3449
1.34664
1.33604
1.33572
1.33492
1.33523
1.33587
1.33626
1.33645
1.33649
1.33647
1.33646
1.33646
1.33647
1.33649
1.33645
1.33626
1.33587
1.33523
1.33492
1.33572
1.33604
1.33669
1.33631
1.33554
1.33595
1.33664
1.33704
1.3372
1.33721
1.33714
1.3371
1.3371
1.33714
1.33721
1.3372
1.33704
1.33664
1.33595
1.33554
1.33631
1.33669
1.33724
1.33676
1.33609
1.33669
1.33744
1.33781
1.33792
1.3379
1.33784
1.33781
1.33781
1.33784
1.3379
1.33792
1.33781
1.33744
1.33669
1.33609
1.33676
1.33724
1.33786
1.33722
1.33663
1.33741
1.33822
1.33856
1.33862
1.33857
1.33851
1.33848
1.33848
1.33851
1.33857
1.33862
1.33856
1.33822
1.33741
1.33663
1.33722
1.33786
1.33856
1.33771
1.33719
1.33816
1.33903
1.33934
1.33935
1.33928
1.33921
1.33919
1.33919
1.33921
1.33928
1.33935
1.33934
1.33903
1.33816
1.33719
1.33771
1.33856
1.33935
1.33823
1.3378
1.33895
1.33986
1.34013
1.34008
1.33999
1.33993
1.33992
1.33992
1.33993
1.33999
1.34008
1.34013
1.33986
1.33895
1.3378
1.33823
1.33935
1.34026
1.33886
1.33852
1.33978
1.34068
1.3409
1.34079
1.34069
1.34064
1.34065
1.34065
1.34064
1.34069
1.34079
1.3409
1.34068
1.33978
1.33852
1.33886
1.34026
1.34127
1.33965
1.33937
1.34063
1.34146
1.34162
1.34146
1.34135
1.34134
1.34136
1.34136
1.34134
1.34135
1.34146
1.34162
1.34146
1.34063
1.33937
1.33965
1.34127
1.34239
1.34063
1.34033
1.3415
1.34222
1.3423
1.34211
1.34201
1.34203
1.34207
1.34207
1.34203
1.34201
1.34211
1.3423
1.34222
1.3415
1.34033
1.34063
1.34239
1.34353
1.34172
1.34131
1.3423
1.34286
1.34283
1.34261
1.34252
1.34256
1.34263
1.34263
1.34256
1.34252
1.34261
1.34283
1.34286
1.3423
1.34131
1.34172
1.34353
1.34449
1.34285
1.34245
1.34335
1.34389
1.34391
1.34378
1.34379
1.34391
1.34401
1.34401
1.34391
1.34379
1.34378
1.34391
1.34389
1.34335
1.34245
1.34285
1.34449
1.345
1.34364
1.34317
1.34379
1.34407
1.34401
1.34383
1.34378
1.34382
1.34389
1.34389
1.34382
1.34378
1.34383
1.34401
1.34407
1.34379
1.34317
1.34364
1.345
1.33485
1.33463
1.334
1.33431
1.33488
1.33524
1.33543
1.3355
1.33549
1.33548
1.33548
1.33549
1.3355
1.33543
1.33524
1.33488
1.33431
1.334
1.33463
1.33485
1.33548
1.33518
1.33448
1.33485
1.3355
1.33591
1.33609
1.33611
1.33604
1.33599
1.33599
1.33604
1.33611
1.33609
1.33591
1.3355
1.33485
1.33448
1.33518
1.33548
1.33602
1.33565
1.33501
1.33552
1.33623
1.33662
1.33676
1.33675
1.33668
1.33663
1.33663
1.33668
1.33675
1.33676
1.33662
1.33623
1.33552
1.33501
1.33565
1.33602
1.33662
1.3361
1.33552
1.33619
1.33696
1.33733
1.33742
1.33739
1.3373
1.33726
1.33726
1.3373
1.33739
1.33742
1.33733
1.33696
1.33619
1.33552
1.3361
1.33662
1.33728
1.33655
1.33602
1.33688
1.33771
1.33806
1.3381
1.33804
1.33796
1.33792
1.33792
1.33796
1.33804
1.3381
1.33806
1.33771
1.33688
1.33602
1.33655
1.33728
1.33804
1.33704
1.33657
1.3376
1.33849
1.3388
1.33879
1.3387
1.33862
1.3386
1.3386
1.33862
1.3387
1.33879
1.3388
1.33849
1.3376
1.33657
1.33704
1.33804
1.3389
1.33762
1.33722
1.33837
1.33926
1.33954
1.33947
1.33936
1.3393
1.33929
1.33929
1.3393
1.33936
1.33947
1.33954
1.33926
1.33837
1.33722
1.33762
1.3389
1.33987
1.33836
1.33802
1.33919
1.34003
1.34025
1.34013
1.34002
1.33998
1.33998
1.33998
1.33998
1.34002
1.34013
1.34025
1.34003
1.33919
1.33802
1.33836
1.33987
1.34093
1.33932
1.33897
1.34007
1.34083
1.34098
1.34084
1.34073
1.34072
1.34074
1.34074
1.34072
1.34073
1.34084
1.34098
1.34083
1.34007
1.33897
1.33932
1.34093
1.34202
1.34038
1.33996
1.34092
1.34155
1.34163
1.34146
1.34136
1.34137
1.34141
1.34141
1.34137
1.34136
1.34146
1.34163
1.34155
1.34092
1.33996
1.34038
1.34202
1.34294
1.34149
1.34112
1.34202
1.34268
1.34283
1.34276
1.34277
1.34285
1.34293
1.34293
1.34285
1.34277
1.34276
1.34283
1.34268
1.34202
1.34112
1.34149
1.34294
1.34346
1.34232
1.34202
1.34279
1.34333
1.34352
1.34349
1.34351
1.34358
1.34365
1.34365
1.34358
1.34351
1.34349
1.34352
1.34333
1.34279
1.34202
1.34232
1.34346
1.33378
1.33358
1.33298
1.33326
1.33382
1.3342
1.33442
1.33449
1.33447
1.33444
1.33444
1.33447
1.33449
1.33442
1.3342
1.33382
1.33326
1.33298
1.33358
1.33378
1.33435
1.33403
1.33335
1.33371
1.33436
1.33478
1.33497
1.33501
1.33494
1.3349
1.3349
1.33494
1.33501
1.33497
1.33478
1.33436
1.33371
1.33335
1.33403
1.33435
1.33486
1.33448
1.33383
1.3343
1.33501
1.33541
1.33557
1.33558
1.33551
1.33546
1.33546
1.33551
1.33558
1.33557
1.33541
1.33501
1.3343
1.33383
1.33448
1.33486
1.33542
1.33491
1.3343
1.33492
1.33567
1.33605
1.33617
1.33616
1.33608
1.33603
1.33603
1.33608
1.33616
1.33617
1.33605
1.33567
1.33492
1.3343
1.33491
1.33542
1.33605
1.33535
1.33477
1.33555
1.33636
1.33673
1.3368
1.33675
1.33667
1.33662
1.33662
1.33667
1.33675
1.3368
1.33673
1.33636
1.33555
1.33477
1.33535
1.33605
1.33677
1.33581
1.33529
1.33621
1.33707
1.33741
1.33743
1.33735
1.33727
1.33723
1.33723
1.33727
1.33735
1.33743
1.33741
1.33707
1.33621
1.33529
1.33581
1.33677
1.33758
1.33636
1.33589
1.33692
1.33779
1.33809
1.33805
1.33795
1.33788
1.33786
1.33786
1.33788
1.33795
1.33805
1.33809
1.33779
1.33692
1.33589
1.33636
1.33758
1.3385
1.33704
1.33663
1.33768
1.3385
1.33875
1.33865
1.33854
1.33848
1.33848
1.33848
1.33848
1.33854
1.33865
1.33875
1.3385
1.33768
1.33663
1.33704
1.3385
1.33949
1.33792
1.33749
1.33848
1.33923
1.33941
1.33928
1.33917
1.33914
1.33915
1.33915
1.33914
1.33917
1.33928
1.33941
1.33923
1.33848
1.33749
1.33792
1.33949
1.34052
1.3389
1.33838
1.33924
1.33986
1.33996
1.33979
1.33968
1.33967
1.3397
1.3397
1.33967
1.33968
1.33979
1.33996
1.33986
1.33924
1.33838
1.3389
1.34052
1.3414
1.33992
1.33941
1.34018
1.34078
1.34092
1.34083
1.3408
1.34084
1.3409
1.3409
1.34084
1.3408
1.34083
1.34092
1.34078
1.34018
1.33941
1.33992
1.3414
1.34193
1.34074
1.34029
1.34088
1.34133
1.34145
1.34136
1.34131
1.34133
1.34137
1.34137
1.34133
1.34131
1.34136
1.34145
1.34133
1.34088
1.34029
1.34074
1.34193
1.33282
1.33262
1.33205
1.33232
1.33287
1.33326
1.33348
1.33356
1.33353
1.33351
1.33351
1.33353
1.33356
1.33348
1.33326
1.33287
1.33232
1.33205
1.33262
1.33282
1.33334
1.33303
1.33239
1.33273
1.33336
1.33378
1.33399
1.33403
1.33397
1.33392
1.33392
1.33397
1.33403
1.33399
1.33378
1.33336
1.33273
1.33239
1.33303
1.33334
1.33381
1.33345
1.33284
1.33327
1.33394
1.33435
1.33453
1.33455
1.33448
1.33443
1.33443
1.33448
1.33455
1.33453
1.33435
1.33394
1.33327
1.33284
1.33345
1.33381
1.33435
1.33386
1.33326
1.33382
1.33454
1.33494
1.33508
1.33507
1.335
1.33495
1.33495
1.335
1.33507
1.33508
1.33494
1.33454
1.33382
1.33326
1.33386
1.33435
1.33494
1.33427
1.33369
1.33439
1.33517
1.33555
1.33564
1.33561
1.33553
1.33548
1.33548
1.33553
1.33561
1.33564
1.33555
1.33517
1.33439
1.33369
1.33427
1.33494
1.33561
1.3347
1.33415
1.33499
1.33581
1.33617
1.33621
1.33615
1.33606
1.33603
1.33603
1.33606
1.33615
1.33621
1.33617
1.33581
1.33499
1.33415
1.3347
1.33561
1.33638
1.33521
1.33469
1.33563
1.33646
1.33678
1.33677
1.33668
1.3366
1.33658
1.33658
1.3366
1.33668
1.33677
1.33678
1.33646
1.33563
1.33469
1.33521
1.33638
1.33724
1.33583
1.33535
1.33631
1.3371
1.33737
1.33729
1.33719
1.33712
1.33711
1.33711
1.33712
1.33719
1.33729
1.33737
1.3371
1.33631
1.33535
1.33583
1.33724
1.33818
1.33663
1.33613
1.33703
1.33775
1.33795
1.33784
1.33772
1.33768
1.33769
1.33769
1.33768
1.33772
1.33784
1.33795
1.33775
1.33703
1.33613
1.33663
1.33818
1.33914
1.33753
1.33694
1.3377
1.33829
1.3384
1.33824
1.33813
1.3381
1.33812
1.33812
1.3381
1.33813
1.33824
1.3384
1.33829
1.3377
1.33694
1.33753
1.33914
1.33998
1.33847
1.33785
1.33849
1.33903
1.33916
1.33905
1.33898
1.339
1.33905
1.33905
1.339
1.33898
1.33905
1.33916
1.33903
1.33849
1.33785
1.33847
1.33998
1.34049
1.33924
1.33862
1.33904
1.3394
1.33945
1.33929
1.33919
1.33919
1.33922
1.33922
1.33919
1.33919
1.33929
1.33945
1.3394
1.33904
1.33862
1.33924
1.34049
1.33196
1.33177
1.33124
1.33151
1.33204
1.33242
1.33265
1.33272
1.3327
1.33267
1.33267
1.3327
1.33272
1.33265
1.33242
1.33204
1.33151
1.33124
1.33177
1.33196
1.33243
1.33217
1.33158
1.33189
1.33248
1.33289
1.33311
1.33316
1.33311
1.33306
1.33306
1.33311
1.33316
1.33311
1.33289
1.33248
1.33189
1.33158
1.33217
1.33243
1.33288
1.33256
1.33198
1.33237
1.33301
1.33341
1.3336
1.33364
1.33357
1.33352
1.33352
1.33357
1.33364
1.3336
1.33341
1.33301
1.33237
1.33198
1.33256
1.33288
1.33338
1.33294
1.33237
1.33287
1.33355
1.33394
1.3341
1.33411
1.33404
1.33399
1.33399
1.33404
1.33411
1.3341
1.33394
1.33355
1.33287
1.33237
1.33294
1.33338
1.33394
1.33332
1.33274
1.33337
1.33411
1.3345
1.33461
1.3346
1.33452
1.33447
1.33447
1.33452
1.3346
1.33461
1.3345
1.33411
1.33337
1.33274
1.33332
1.33394
1.33457
1.33372
1.33315
1.33391
1.3347
1.33506
1.33513
1.33508
1.335
1.33496
1.33496
1.335
1.33508
1.33513
1.33506
1.3347
1.33391
1.33315
1.33372
1.33457
1.33529
1.33419
1.33363
1.33448
1.33529
1.33562
1.33563
1.33556
1.33548
1.33545
1.33545
1.33548
1.33556
1.33563
1.33562
1.33529
1.33448
1.33363
1.33419
1.33529
1.33611
1.33475
1.33422
1.33509
1.33587
1.33615
1.3361
1.336
1.33594
1.33592
1.33592
1.33594
1.336
1.3361
1.33615
1.33587
1.33509
1.33422
1.33475
1.33611
1.33699
1.33549
1.33493
1.33575
1.33646
1.33668
1.33659
1.33648
1.33643
1.33643
1.33643
1.33643
1.33648
1.33659
1.33668
1.33646
1.33575
1.33493
1.33549
1.33699
1.33789
1.33633
1.33569
1.33637
1.33696
1.3371
1.33695
1.33683
1.3368
1.33681
1.33681
1.3368
1.33683
1.33695
1.3371
1.33696
1.33637
1.33569
1.33633
1.33789
1.33869
1.33721
1.33653
1.33709
1.33762
1.33776
1.33765
1.33758
1.33758
1.33761
1.33761
1.33758
1.33758
1.33765
1.33776
1.33762
1.33709
1.33653
1.33721
1.33869
1.33919
1.33793
1.33726
1.33761
1.33796
1.33803
1.33788
1.33779
1.33778
1.33781
1.33781
1.33778
1.33779
1.33788
1.33803
1.33796
1.33761
1.33726
1.33793
1.33919
1.3312
1.33103
1.33054
1.33079
1.3313
1.33167
1.3319
1.33197
1.33194
1.33191
1.33191
1.33194
1.33197
1.3319
1.33167
1.3313
1.33079
1.33054
1.33103
1.3312
1.33163
1.3314
1.33086
1.33114
1.3317
1.3321
1.33232
1.33237
1.33232
1.33227
1.33227
1.33232
1.33237
1.33232
1.3321
1.3317
1.33114
1.33086
1.3314
1.33163
1.33205
1.33177
1.33122
1.33157
1.33217
1.33256
1.33276
1.3328
1.33274
1.33269
1.33269
1.33274
1.3328
1.33276
1.33256
1.33217
1.33157
1.33122
1.33177
1.33205
1.33252
1.33212
1.33157
1.33201
1.33265
1.33304
1.33321
1.33324
1.33317
1.33311
1.33311
1.33317
1.33324
1.33321
1.33304
1.33265
1.33201
1.33157
1.33212
1.33252
1.33304
1.33248
1.3319
1.33246
1.33316
1.33355
1.33368
1.33367
1.3336
1.33355
1.33355
1.3336
1.33367
1.33368
1.33355
1.33316
1.33246
1.3319
1.33248
1.33304
1.33363
1.33285
1.33226
1.33293
1.33368
1.33406
1.33414
1.33411
1.33403
1.33399
1.33399
1.33403
1.33411
1.33414
1.33406
1.33368
1.33293
1.33226
1.33285
1.33363
1.33431
1.33328
1.33268
1.33344
1.33422
1.33457
1.3346
1.33454
1.33446
1.33443
1.33443
1.33446
1.33454
1.3346
1.33457
1.33422
1.33344
1.33268
1.33328
1.33431
1.33507
1.3338
1.33321
1.334
1.33475
1.33505
1.33503
1.33494
1.33487
1.33485
1.33485
1.33487
1.33494
1.33503
1.33505
1.33475
1.334
1.33321
1.3338
1.33507
1.3359
1.33447
1.33386
1.3346
1.33529
1.33554
1.33547
1.33536
1.33531
1.3353
1.3353
1.33531
1.33536
1.33547
1.33554
1.33529
1.3346
1.33386
1.33447
1.3359
1.33675
1.33525
1.33457
1.33518
1.33576
1.33593
1.33581
1.33569
1.33565
1.33566
1.33566
1.33565
1.33569
1.33581
1.33593
1.33576
1.33518
1.33457
1.33525
1.33675
1.33751
1.33608
1.33536
1.33585
1.33637
1.33654
1.33645
1.33638
1.33637
1.33639
1.33639
1.33637
1.33638
1.33645
1.33654
1.33637
1.33585
1.33536
1.33608
1.33751
1.338
1.33678
1.33608
1.33639
1.33676
1.33687
1.33676
1.33668
1.33667
1.33669
1.33669
1.33667
1.33668
1.33676
1.33687
1.33676
1.33639
1.33608
1.33678
1.338
1.33053
1.33039
1.32994
1.33016
1.33064
1.331
1.33122
1.33129
1.33126
1.33123
1.33123
1.33126
1.33129
1.33122
1.331
1.33064
1.33016
1.32994
1.33039
1.33053
1.33092
1.33073
1.33022
1.33048
1.331
1.33139
1.3316
1.33166
1.33161
1.33156
1.33156
1.33161
1.33166
1.3316
1.33139
1.331
1.33048
1.33022
1.33073
1.33092
1.33131
1.33107
1.33055
1.33086
1.33142
1.3318
1.332
1.33205
1.33199
1.33194
1.33194
1.33199
1.33205
1.332
1.3318
1.33142
1.33086
1.33055
1.33107
1.33131
1.33175
1.3314
1.33086
1.33125
1.33185
1.33224
1.33241
1.33244
1.33238
1.33233
1.33233
1.33238
1.33244
1.33241
1.33224
1.33185
1.33125
1.33086
1.3314
1.33175
1.33223
1.33172
1.33116
1.33164
1.33231
1.33269
1.33283
1.33284
1.33277
1.33272
1.33272
1.33277
1.33284
1.33283
1.33269
1.33231
1.33164
1.33116
1.33172
1.33223
1.33278
1.33206
1.33147
1.33206
1.33277
1.33315
1.33325
1.33323
1.33316
1.33312
1.33312
1.33316
1.33323
1.33325
1.33315
1.33277
1.33206
1.33147
1.33206
1.33278
1.33342
1.33246
1.33184
1.33252
1.33325
1.33361
1.33366
1.33361
1.33354
1.33351
1.33351
1.33354
1.33361
1.33366
1.33361
1.33325
1.33252
1.33184
1.33246
1.33342
1.33414
1.33293
1.33231
1.33301
1.33373
1.33405
1.33405
1.33397
1.3339
1.33388
1.33388
1.3339
1.33397
1.33405
1.33405
1.33373
1.33301
1.33231
1.33293
1.33414
1.33492
1.33354
1.3329
1.33355
1.33422
1.33449
1.33444
1.33435
1.33429
1.33428
1.33428
1.33429
1.33435
1.33444
1.33449
1.33422
1.33355
1.3329
1.33354
1.33492
1.33572
1.33428
1.33355
1.33409
1.33467
1.33486
1.33476
1.33465
1.3346
1.3346
1.3346
1.3346
1.33465
1.33476
1.33486
1.33467
1.33409
1.33355
1.33428
1.33572
1.33644
1.33505
1.3343
1.33472
1.33523
1.33542
1.33535
1.33527
1.33525
1.33526
1.33526
1.33525
1.33527
1.33535
1.33542
1.33523
1.33472
1.3343
1.33505
1.33644
1.3369
1.33572
1.335
1.33525
1.33562
1.33575
1.33566
1.33558
1.33556
1.33558
1.33558
1.33556
1.33558
1.33566
1.33575
1.33562
1.33525
1.335
1.33572
1.33691
1.32995
1.32983
1.32941
1.32961
1.33007
1.33041
1.33062
1.33069
1.33066
1.33062
1.33062
1.33066
1.33069
1.33062
1.33041
1.33007
1.32961
1.32941
1.32983
1.32995
1.3303
1.33015
1.32968
1.32991
1.33039
1.33076
1.33096
1.33102
1.33098
1.33093
1.33093
1.33098
1.33102
1.33096
1.33076
1.33039
1.32991
1.32968
1.33015
1.3303
1.33066
1.33046
1.32997
1.33024
1.33076
1.33113
1.33132
1.33138
1.33132
1.33127
1.33127
1.33132
1.33138
1.33132
1.33113
1.33076
1.33024
1.32997
1.33046
1.33066
1.33106
1.33076
1.33024
1.33058
1.33115
1.33152
1.33169
1.33173
1.33167
1.33162
1.33162
1.33167
1.33173
1.33169
1.33152
1.33115
1.33058
1.33024
1.33076
1.33106
1.33151
1.33106
1.3305
1.33093
1.33155
1.33192
1.33207
1.33209
1.33203
1.33198
1.33198
1.33203
1.33209
1.33207
1.33192
1.33155
1.33093
1.3305
1.33106
1.33151
1.33203
1.33137
1.33078
1.3313
1.33196
1.33234
1.33245
1.33244
1.33238
1.33233
1.33233
1.33238
1.33244
1.33245
1.33234
1.33196
1.3313
1.33078
1.33137
1.33203
1.33262
1.33173
1.3311
1.33169
1.33239
1.33275
1.33282
1.33278
1.33272
1.33268
1.33268
1.33272
1.33278
1.33282
1.33275
1.33239
1.33169
1.3311
1.33173
1.33262
1.3333
1.33216
1.33151
1.33213
1.33282
1.33315
1.33317
1.3331
1.33303
1.33301
1.33301
1.33303
1.3331
1.33317
1.33315
1.33282
1.33213
1.33151
1.33216
1.3333
1.33403
1.33272
1.33204
1.33262
1.33326
1.33355
1.33352
1.33343
1.33337
1.33336
1.33336
1.33337
1.33343
1.33352
1.33355
1.33326
1.33262
1.33204
1.33272
1.33403
1.33478
1.3334
1.33264
1.33311
1.33367
1.33388
1.33381
1.3337
1.33365
1.33364
1.33364
1.33365
1.3337
1.33381
1.33388
1.33367
1.33311
1.33264
1.3334
1.33478
1.33546
1.33412
1.33334
1.33369
1.33419
1.33439
1.33433
1.33426
1.33423
1.33424
1.33424
1.33423
1.33426
1.33433
1.33439
1.33419
1.33369
1.33334
1.33412
1.33546
1.33591
1.33476
1.33401
1.3342
1.33455
1.3347
1.33462
1.33455
1.33452
1.33453
1.33453
1.33452
1.33455
1.33462
1.3347
1.33455
1.3342
1.33401
1.33476
1.33591
1.32944
1.32935
1.32897
1.32915
1.32957
1.32989
1.33009
1.33015
1.33012
1.33008
1.33008
1.33012
1.33015
1.33009
1.32989
1.32957
1.32915
1.32897
1.32935
1.32944
1.32976
1.32964
1.32922
1.32941
1.32986
1.3302
1.3304
1.33046
1.33041
1.33037
1.33037
1.33041
1.33046
1.3304
1.3302
1.32986
1.32941
1.32922
1.32964
1.32976
1.3301
1.32993
1.32947
1.32971
1.33019
1.33054
1.33073
1.33078
1.33073
1.33068
1.33068
1.33073
1.33078
1.33073
1.33054
1.33019
1.32971
1.32947
1.32993
1.3301
1.33047
1.33021
1.32971
1.33001
1.33053
1.33088
1.33106
1.3311
1.33105
1.331
1.331
1.33105
1.3311
1.33106
1.33088
1.33053
1.33001
1.32971
1.33021
1.33047
1.33088
1.33048
1.32994
1.33031
1.33088
1.33125
1.3314
1.33143
1.33137
1.33132
1.33132
1.33137
1.33143
1.3314
1.33125
1.33088
1.33031
1.32994
1.33048
1.33088
1.33136
1.33077
1.33017
1.33062
1.33125
1.33162
1.33174
1.33174
1.33168
1.33164
1.33164
1.33168
1.33174
1.33174
1.33162
1.33125
1.33062
1.33017
1.33077
1.33136
1.33191
1.33109
1.33045
1.33097
1.33163
1.33199
1.33207
1.33205
1.33198
1.33194
1.33194
1.33198
1.33205
1.33207
1.33199
1.33163
1.33097
1.33045
1.33109
1.33191
1.33254
1.33149
1.3308
1.33136
1.33201
1.33234
1.33238
1.33233
1.33226
1.33223
1.33223
1.33226
1.33233
1.33238
1.33234
1.33201
1.33136
1.3308
1.33149
1.33254
1.33323
1.33199
1.33128
1.33179
1.33241
1.3327
1.3327
1.33262
1.33256
1.33254
1.33254
1.33256
1.33262
1.3327
1.3327
1.33241
1.33179
1.33128
1.33199
1.33323
1.33394
1.33262
1.33184
1.33225
1.33279
1.33301
1.33296
1.33286
1.3328
1.3328
1.3328
1.3328
1.33286
1.33296
1.33301
1.33279
1.33225
1.33184
1.33262
1.33394
1.33458
1.33329
1.33249
1.33278
1.33326
1.33348
1.33344
1.33336
1.33333
1.33333
1.33333
1.33333
1.33336
1.33344
1.33348
1.33326
1.33278
1.33249
1.33329
1.33458
1.33501
1.3339
1.33313
1.33327
1.33361
1.33377
1.33371
1.33364
1.33361
1.33362
1.33362
1.33361
1.33364
1.33371
1.33377
1.33361
1.33327
1.33313
1.3339
1.33501
1.32902
1.32895
1.3286
1.32875
1.32914
1.32944
1.32963
1.32968
1.32965
1.32961
1.32961
1.32965
1.32968
1.32963
1.32944
1.32914
1.32875
1.3286
1.32895
1.32902
1.3293
1.32922
1.32883
1.32899
1.32941
1.32972
1.32991
1.32996
1.32991
1.32987
1.32987
1.32991
1.32996
1.32991
1.32972
1.32941
1.32899
1.32883
1.32922
1.3293
1.32961
1.32948
1.32905
1.32925
1.32969
1.33002
1.3302
1.33025
1.3302
1.33016
1.33016
1.3302
1.33025
1.3302
1.33002
1.32969
1.32925
1.32905
1.32948
1.32961
1.32995
1.32973
1.32926
1.32951
1.32999
1.33033
1.3305
1.33054
1.33049
1.33045
1.33045
1.33049
1.33054
1.3305
1.33033
1.32999
1.32951
1.32926
1.32973
1.32995
1.33033
1.32998
1.32946
1.32977
1.3303
1.33065
1.3308
1.33084
1.33078
1.33074
1.33074
1.33078
1.33084
1.3308
1.33065
1.3303
1.32977
1.32946
1.32998
1.33033
1.33077
1.33024
1.32965
1.33004
1.33062
1.33098
1.33111
1.33112
1.33106
1.33102
1.33102
1.33106
1.33112
1.33111
1.33098
1.33062
1.33004
1.32965
1.33024
1.33077
1.33129
1.33054
1.32989
1.33034
1.33096
1.33131
1.33141
1.33139
1.33133
1.33129
1.33129
1.33133
1.33139
1.33141
1.33131
1.33096
1.33034
1.32989
1.33054
1.33129
1.33188
1.33089
1.3302
1.33068
1.3313
1.33163
1.33168
1.33164
1.33157
1.33155
1.33155
1.33157
1.33164
1.33168
1.33163
1.3313
1.33068
1.3302
1.33089
1.33188
1.33252
1.33135
1.33062
1.33107
1.33166
1.33196
1.33197
1.3319
1.33183
1.33181
1.33181
1.33183
1.3319
1.33197
1.33196
1.33166
1.33107
1.33062
1.33135
1.33252
1.33318
1.33193
1.33113
1.33148
1.332
1.33224
1.33221
1.33212
1.33206
1.33205
1.33205
1.33206
1.33212
1.33221
1.33224
1.332
1.33148
1.33113
1.33193
1.33318
1.33378
1.33256
1.33175
1.33198
1.33244
1.33267
1.33265
1.33258
1.33254
1.33253
1.33253
1.33254
1.33258
1.33265
1.33267
1.33244
1.33198
1.33175
1.33256
1.33378
1.33419
1.33314
1.33236
1.33245
1.33279
1.33296
1.33292
1.33286
1.33282
1.33282
1.33282
1.33282
1.33286
1.33292
1.33296
1.33279
1.33245
1.33236
1.33314
1.33419
1.32865
1.32862
1.32829
1.32842
1.32878
1.32906
1.32922
1.32927
1.32923
1.3292
1.3292
1.32923
1.32927
1.32922
1.32906
1.32878
1.32842
1.32829
1.32862
1.32865
1.32891
1.32886
1.3285
1.32864
1.32901
1.3293
1.32947
1.32952
1.32948
1.32944
1.32944
1.32948
1.32952
1.32947
1.3293
1.32901
1.32864
1.3285
1.32886
1.32891
1.32919
1.32909
1.3287
1.32887
1.32927
1.32957
1.32974
1.32979
1.32974
1.3297
1.3297
1.32974
1.32979
1.32974
1.32957
1.32927
1.32887
1.3287
1.32909
1.32919
1.3295
1.32932
1.32888
1.32909
1.32953
1.32984
1.33001
1.33005
1.33001
1.32996
1.32996
1.33001
1.33005
1.33001
1.32984
1.32953
1.32909
1.32888
1.32932
1.3295
1.32985
1.32955
1.32905
1.32931
1.3298
1.33013
1.33028
1.33032
1.33027
1.33023
1.33023
1.33027
1.33032
1.33028
1.33013
1.3298
1.32931
1.32905
1.32955
1.32985
1.33026
1.32979
1.32921
1.32954
1.33008
1.33042
1.33055
1.33057
1.33052
1.33048
1.33048
1.33052
1.33057
1.33055
1.33042
1.33008
1.32954
1.32921
1.32979
1.33026
1.33074
1.33006
1.32941
1.3298
1.33037
1.33072
1.33082
1.33081
1.33075
1.33072
1.33072
1.33075
1.33081
1.33082
1.33072
1.33037
1.3298
1.32941
1.33006
1.33074
1.33129
1.33038
1.32967
1.33009
1.33067
1.331
1.33107
1.33103
1.33097
1.33094
1.33094
1.33097
1.33103
1.33107
1.331
1.33067
1.33009
1.32967
1.33038
1.33129
1.33189
1.33079
1.33005
1.33043
1.33099
1.3313
1.33132
1.33126
1.3312
1.33118
1.33118
1.3312
1.33126
1.33132
1.3313
1.33099
1.33043
1.33005
1.33079
1.33189
1.33251
1.33132
1.33052
1.33081
1.33131
1.33156
1.33155
1.33146
1.3314
1.33139
1.33139
1.3314
1.33146
1.33155
1.33156
1.33131
1.33081
1.33052
1.33132
1.33251
1.33308
1.33191
1.33109
1.33128
1.33172
1.33196
1.33195
1.33188
1.33184
1.33183
1.33183
1.33184
1.33188
1.33195
1.33196
1.33172
1.33128
1.33109
1.33191
1.33308
1.33347
1.33246
1.33169
1.33173
1.33206
1.33225
1.33223
1.33217
1.33213
1.33212
1.33212
1.33213
1.33217
1.33223
1.33225
1.33206
1.33173
1.33169
1.33246
1.33347
1.32836
1.32834
1.32804
1.32815
1.32847
1.32872
1.32887
1.32891
1.32887
1.32884
1.32884
1.32887
1.32891
1.32887
1.32872
1.32847
1.32815
1.32804
1.32834
1.32836
1.32858
1.32856
1.32823
1.32834
1.32868
1.32895
1.3291
1.32914
1.3291
1.32906
1.32906
1.3291
1.32914
1.3291
1.32895
1.32868
1.32834
1.32823
1.32856
1.32858
1.32884
1.32877
1.3284
1.32854
1.32891
1.32918
1.32934
1.32938
1.32934
1.3293
1.3293
1.32934
1.32938
1.32934
1.32918
1.32891
1.32854
1.32841
1.32877
1.32884
1.32912
1.32898
1.32856
1.32873
1.32913
1.32943
1.32958
1.32963
1.32958
1.32954
1.32954
1.32958
1.32963
1.32958
1.32943
1.32913
1.32873
1.32856
1.32898
1.32912
1.32945
1.32919
1.3287
1.32892
1.32937
1.32968
1.32983
1.32986
1.32982
1.32978
1.32978
1.32982
1.32986
1.32983
1.32968
1.32937
1.32892
1.3287
1.32919
1.32945
1.32982
1.3294
1.32884
1.32912
1.32961
1.32994
1.33007
1.33009
1.33004
1.33001
1.33001
1.33004
1.33009
1.33007
1.32994
1.32961
1.32912
1.32884
1.3294
1.32982
1.33026
1.32965
1.329
1.32933
1.32987
1.3302
1.33031
1.33031
1.33025
1.33022
1.33022
1.33025
1.33031
1.33031
1.3302
1.32987
1.32933
1.329
1.32965
1.33026
1.33078
1.32994
1.32923
1.32958
1.33013
1.33046
1.33053
1.3305
1.33044
1.33041
1.33041
1.33044
1.3305
1.33053
1.33046
1.33013
1.32958
1.32923
1.32994
1.33078
1.33134
1.33031
1.32956
1.32989
1.33042
1.33072
1.33076
1.3307
1.33064
1.33062
1.33062
1.33064
1.3307
1.33076
1.33072
1.33042
1.32989
1.32956
1.33031
1.33134
1.33192
1.3308
1.32999
1.33023
1.33071
1.33097
1.33097
1.33089
1.33083
1.33081
1.33081
1.33083
1.33089
1.33097
1.33097
1.33071
1.33023
1.32999
1.3308
1.33192
1.33245
1.33135
1.33053
1.33066
1.33109
1.33134
1.33134
1.33128
1.33123
1.33122
1.33122
1.33123
1.33128
1.33134
1.33134
1.33109
1.33066
1.33053
1.33135
1.33245
1.33282
1.33186
1.3311
1.3311
1.33142
1.33162
1.33161
1.33156
1.33151
1.33151
1.33151
1.33151
1.33156
1.33161
1.33162
1.33142
1.3311
1.3311
1.33186
1.33282
1.32811
1.32812
1.32784
1.32792
1.32821
1.32844
1.32858
1.32861
1.32857
1.32853
1.32853
1.32857
1.32861
1.32858
1.32844
1.32821
1.32792
1.32784
1.32812
1.32811
1.32832
1.32832
1.32801
1.3281
1.3284
1.32865
1.32879
1.32882
1.32878
1.32874
1.32874
1.32878
1.32882
1.32879
1.32865
1.3284
1.3281
1.32801
1.32832
1.32832
1.32855
1.32851
1.32817
1.32828
1.3286
1.32886
1.329
1.32904
1.329
1.32896
1.32896
1.329
1.32904
1.329
1.32886
1.3286
1.32828
1.32817
1.32851
1.32855
1.3288
1.3287
1.3283
1.32844
1.3288
1.32907
1.32922
1.32926
1.32922
1.32918
1.32918
1.32922
1.32926
1.32922
1.32907
1.3288
1.32844
1.3283
1.3287
1.3288
1.3291
1.32889
1.32842
1.3286
1.32901
1.3293
1.32944
1.32948
1.32943
1.3294
1.3294
1.32943
1.32948
1.32944
1.3293
1.32901
1.3286
1.32842
1.32889
1.3291
1.32945
1.32909
1.32854
1.32876
1.32922
1.32953
1.32966
1.32968
1.32964
1.3296
1.3296
1.32964
1.32968
1.32966
1.32953
1.32922
1.32876
1.32854
1.32909
1.32945
1.32986
1.3293
1.32867
1.32894
1.32943
1.32976
1.32987
1.32987
1.32982
1.32979
1.32979
1.32982
1.32987
1.32987
1.32976
1.32943
1.32894
1.32867
1.3293
1.32986
1.33033
1.32957
1.32886
1.32915
1.32966
1.32998
1.33007
1.33004
1.32999
1.32996
1.32996
1.32999
1.33004
1.33007
1.32998
1.32966
1.32915
1.32886
1.32957
1.33033
1.33086
1.32991
1.32915
1.32942
1.32992
1.33022
1.33027
1.33022
1.33016
1.33013
1.33013
1.33016
1.33022
1.33027
1.33022
1.32992
1.32942
1.32915
1.32991
1.33086
1.33141
1.33035
1.32954
1.32973
1.33019
1.33045
1.33046
1.33039
1.33033
1.33031
1.33031
1.33033
1.33039
1.33046
1.33045
1.33019
1.32973
1.32954
1.33035
1.33141
1.3319
1.33086
1.33005
1.33014
1.33054
1.3308
1.33081
1.33075
1.3307
1.33069
1.33069
1.3307
1.33075
1.33081
1.3308
1.33054
1.33014
1.33005
1.33086
1.3319
1.33225
1.33134
1.33059
1.33056
1.33086
1.33107
1.33108
1.33103
1.33098
1.33097
1.33097
1.33098
1.33103
1.33108
1.33107
1.33086
1.33056
1.33059
1.33134
1.33225
1.32792
1.32795
1.32769
1.32775
1.328
1.32821
1.32833
1.32835
1.32831
1.32828
1.32828
1.32831
1.32835
1.32833
1.32821
1.328
1.32775
1.32769
1.32795
1.32792
1.3281
1.32813
1.32785
1.32791
1.32818
1.3284
1.32852
1.32855
1.32851
1.32848
1.32848
1.32851
1.32855
1.32852
1.3284
1.32818
1.32791
1.32785
1.32813
1.3281
1.32831
1.3283
1.32798
1.32806
1.32835
1.32859
1.32872
1.32875
1.32871
1.32868
1.32868
1.32871
1.32875
1.32872
1.32859
1.32835
1.32806
1.32798
1.3283
1.32831
1.32855
1.32848
1.3281
1.3282
1.32853
1.32878
1.32891
1.32895
1.32891
1.32888
1.32888
1.32891
1.32895
1.32891
1.32878
1.32853
1.3282
1.3281
1.32848
1.32855
1.32882
1.32865
1.3282
1.32834
1.3287
1.32898
1.32911
1.32914
1.32911
1.32907
1.32907
1.32911
1.32914
1.32911
1.32898
1.3287
1.32834
1.3282
1.32865
1.32882
1.32914
1.32883
1.32829
1.32847
1.32888
1.32918
1.3293
1.32933
1.32929
1.32925
1.32925
1.32929
1.32933
1.3293
1.32918
1.32888
1.32847
1.32829
1.32883
1.32914
1.32951
1.32902
1.32839
1.32861
1.32907
1.32938
1.32949
1.3295
1.32945
1.32942
1.32942
1.32945
1.3295
1.32949
1.32938
1.32907
1.32861
1.32839
1.32902
1.32951
1.32996
1.32927
1.32855
1.32879
1.32927
1.32958
1.32967
1.32965
1.3296
1.32956
1.32956
1.3296
1.32965
1.32967
1.32958
1.32927
1.32879
1.32855
1.32927
1.32996
1.33045
1.32957
1.32881
1.32903
1.3295
1.3298
1.32985
1.32981
1.32975
1.32972
1.32972
1.32975
1.32981
1.32985
1.3298
1.3295
1.32903
1.32881
1.32957
1.33045
1.33096
1.32997
1.32917
1.32931
1.32974
1.33001
1.33003
1.32997
1.3299
1.32988
1.32988
1.3299
1.32997
1.33003
1.33001
1.32974
1.32931
1.32917
1.32997
1.33096
1.33142
1.33045
1.32964
1.32969
1.33007
1.33033
1.33036
1.3303
1.33025
1.33023
1.33023
1.33025
1.3303
1.33036
1.33033
1.33007
1.32969
1.32964
1.33045
1.33142
1.33175
1.3309
1.33016
1.3301
1.33039
1.3306
1.33062
1.33057
1.33053
1.33051
1.33051
1.33053
1.33057
1.33062
1.3306
1.33039
1.3301
1.33016
1.3309
1.33175
1.32777
1.32781
1.32757
1.32761
1.32783
1.32802
1.32812
1.32814
1.3281
1.32807
1.32807
1.3281
1.32814
1.32812
1.32802
1.32783
1.32761
1.32757
1.32781
1.32777
1.32794
1.32798
1.32772
1.32777
1.328
1.32819
1.3283
1.32832
1.32829
1.32825
1.32825
1.32829
1.32832
1.3283
1.32819
1.328
1.32777
1.32772
1.32798
1.32794
1.32813
1.32814
1.32784
1.3279
1.32815
1.32836
1.32848
1.32851
1.32847
1.32844
1.32844
1.32847
1.32851
1.32848
1.32836
1.32815
1.3279
1.32784
1.32814
1.32813
1.32834
1.3283
1.32795
1.32802
1.32831
1.32854
1.32866
1.32869
1.32866
1.32862
1.32862
1.32866
1.32869
1.32866
1.32854
1.32831
1.32802
1.32795
1.3283
1.32834
1.32859
1.32846
1.32803
1.32813
1.32846
1.32871
1.32884
1.32887
1.32883
1.3288
1.3288
1.32883
1.32887
1.32884
1.32871
1.32846
1.32813
1.32803
1.32846
1.32859
1.32888
1.32862
1.3281
1.32824
1.32861
1.32889
1.32901
1.32903
1.32899
1.32896
1.32896
1.32899
1.32903
1.32901
1.32889
1.32861
1.32824
1.3281
1.32862
1.32888